Formula,Gap wo. soc.
Ag2Au2Cl8,0.861
Ag2Br2,1.8775
Ag2Br2S4,1.189
Ag2Br2Se4,1.295
Ag2Br2Te4,1.287
Ag2Br6,0.073
Ag2C8N6,3.426
Ag2Cl2,1.8695
Ag2Cl2S4,1.196
Ag2Cl2Se4,1.39
Ag2Cl2Te4,1.387
Ag2Cl6,0.134
Ag2Cr2P4S12,1.01
Ag2F2,0.5595
Ag2I2,2.1109999999999998
Ag2I2S4,1.3
Ag2I2Se4,1.165
Ag2I2Te4,1.165
Ag2MoO4,2.126
Ag2MoS4,0.953
Ag2MoSe4,0.708
Ag2MoTe4,0.338
Ag2O2,0.16
Ag2ReBr6,0.638
Ag2ReCl6,0.814
Ag2ReF6,1.009
Ag2ReI6,0.303
Ag2S2,0.484
Ag2Se2,0.435
Ag2Te2,0.221
Ag2V2P4S12,0.028
Ag2WO4,1.985
Ag2WS4,1.434
Ag2WSe4,1.141
Ag2WTe4,0.677
Ag8C4N8,1.63
AgBiP2Se6,1.417
AgGaP2Se6,0.937
AgInP2S6,1.333
AgInP2Se6,0.893
AgScP2S6,2.028
AgScP2Se6,1.691
AgSnF6,0.609
AgVP2Se6,0.356
Al2Br2O2,4.158
Al2Br2S2,2.264
Al2Br2Se2,1.543
Al2Br6,3.3175
Al2Cl2O2,5.73
Al2Cl2S2,2.335
Al2Cl2Se2,1.423
Al2Cl6,4.668
Al2FeS4,0.667
Al2I2O2,2.26
Al2I2S2,1.76
Al2I2Se2,1.515
Al2I6,1.7955
Al2Mg2Se5,1.254
Al2MgS4,2.078
Al2MgSe4,1.203
Al2O2,0.6585
Al2O4,0.017
Al2P2S6,1.312
Al2P2Se6,0.637
Al2S2,1.4096666666666666
Al2Se2,1.386
Al2Si2Te6,1.366
Al2Te2,1.3019999999999998
Al2Tl2F8,2.491
Al8Te12,1.896
AlAs,1.239
AlLiP2S6,2.825
AlN,2.893
AlP,2.26
AlSb,1.53
As2,1.614
As2Br6,2.572
As2H2O10Te2,3.435
As2I6,2.248
As2O6Sb2,4.068
As2O8P2,4.378
As2O8Sb2,3.443
As4,0.849
As4Ge4Se4,1.763
As4H2O12P2,4.575
As4O12S2,4.476
As4O6,3.9979999999999998
As4O8,3.236
As4S6,2.2725
As4Se6,1.764
As8Ge4,1.222
As8Si4,1.439
AsB,0.76
AsBrS,1.48
AsBrSe,1.449
AsBrTe,1.3735
AsClS,1.6525
AsClSe,1.6164999999999998
AsClTe,1.5995
AsIS,1.097
AsISe,1.0815000000000001
AsITe,1.029
Au2Br2,1.091
Au2Br2Se4,0.927
Au2Br2Te4,1.187
Au2Br6,0.058
Au2CaF12,1.623
Au2Cl2,0.176
Au2Cl2Te4,1.153
Au2Cl6,0.12
Au2I2,1.065
Au2I2Se4,0.844
Au2I2Te4,0.851
Au2MoO4,2.903
Au2MoS4,0.828
Au2MoSe4,0.648
Au2MoTe4,0.279
Au2O2,0.083
Au2ReF6,0.106
Au2S2,0.42766666666666664
Au2Se2,0.297
Au2Te2,0.24
Au2WO4,3.251
Au2WS4,1.152
Au2WSe4,0.855
Au2WTe4,0.396
Au4I4Te4,1.223
B3C10N3,0.811
BN,4.667
BP,0.898
BSb,0.324
Ba2H8O6,4.251
Ba4F4Sb4Se8,1.485
BaBr2,4.619
BaCl2,5.1930000000000005
BaF12Sb2,4.967
BaF2,5.722
BaI2,3.9666666666666663
BeH4O4P2,5.994
Bi2,0.611
Bi2Br2O2,2.387
Bi2Br2S2,1.71
Bi2Br2Se2,1.125
Bi2Br6,2.842
Bi2Cd2Cl2O4,3.159
Bi2Cl2O2,2.677
Bi2Cl2S2,1.73
Bi2Cl2Se2,1.144
Bi2Cl6,3.25
Bi2Cu2S4,0.355
Bi2F6,5.132
Bi2Ge3O9,3.897
Bi2I2O2,1.967
Bi2I2S2,1.597
Bi2I2Se2,1.144
Bi2I6,2.4835000000000003
Bi2MnTe4,0.718
Bi2O2,0.46
Bi2O9Si3,4.455
Bi2OS2,0.906
Bi2OSe2,0.879
Bi2OTe2,0.685
Bi2P2S6,1.065
Bi2P2Se6,1.203
Bi2P2Te6,0.802
Bi2S2,0.326
Bi2S2Se,1.056
Bi2S2Te,1.259
Bi2S3,1.07
Bi2SSe2,0.898
Bi2STe2,0.93
Bi2Se2,0.423
Bi2Se2Te,1.075
Bi2Se3,0.847
Bi2SeTe2,0.86
Bi2Te2,0.205
Bi2Te3,0.916
Bi4B4O12,3.702
Bi4Sr2O8,2.85
BiBrS,1.923
BiBrSe,1.811
BiBrTe,1.723
BiClS,2.032
BiClSe,1.9509999999999998
BiClTe,1.8085
BiCrAs,0.0325
BiCuP2Se6,1.236
BiHO6Se2,3.826
BiIS,1.7429999999999999
BiISe,1.6745
BiITe,1.5819999999999999
Br2Ge,2.1186666666666665
Br2Ge2N2,1.502
Br2Sb2,0.002
Br6Sb2,2.504
BrSSb,1.436
BrSbSe,1.373
BrSbTe,1.388
C2F2,3.178
C2H2,3.463
C6N2,0.396
C6N8,1.265
CF2Si,1.946
CH2Si,3.788
Ca2Br2H2,4.197
Ca2C2F2O6,0.839
Ca2Cl4H8O4,5.721
Ca2Cl4O8,2.819
Ca2CoO3,0.044
Ca2I2,0.129
Ca2Sn4F12,3.958
Ca4As4,1.005
Ca4O12Te4,3.988
CaBr2,4.683333333333334
CaCl2,5.3709999999999996
CaF2,6.464
CaF2O2,2.83
CaH2O2,3.726
CaH2S2,3.841
CaI2,3.807
Cd2H4O8Se2,4.112
Cd2Mn3O8,1.105
Cd2P2S6,1.888
Cd2P2Se6,1.277
Cd2P2Te6,0.824
Cd2S2,0.8975
Cd2S4,1.523
Cd2Se2,0.7615
Cd2Se4,1.368
Cd2Te2,0.684
Cd2Te4,1.126
CdBr2,2.949666666666667
CdC4Cl2H4N2,2.18
CdCl2,3.548
CdClHO,2.541
CdF2,3.807
CdF2O2,1.575
CdGaInS4,0.425
CdH2O2,2.272
CdH2S2,2.262
CdI2,2.328
CdO2,0.138
CdPb2Cl2O2,3.149
CdS2,0.681
Cl2Ge,2.33
Cl2Ge2N2,1.852
Cl2Sb2,0.0035
ClSSb,1.5545
ClSbSe,1.5345
ClSbTe,1.6045
Co2Br2,0.0145
Co2Br4O6Sb4,0.832
Co2Br6,0.497
Co2Cl6,0.5675
Co2F2O4,0.464
Co2H2O4,0.385
Co2H2S4,0.365
Co2H4O8Se2,0.476
Co2I6,0.4345
Co4Br4O4,0.178
Co4S8,0.321
CoBr2,0.18599999999999997
CoC4Cl2H4N2,0.321
CoC4H8N2O4,0.395
CoCl2,0.17899999999999996
CoCl2O8,0.735
CoF2,0.297
CoHfF6,0.834
CoZrBr6,0.398
Cr2Br2O2,0.505
Cr2Br2S2,0.46
Cr2Br2Se2,0.262
Cr2Br6,1.518
Cr2Cl2O2,0.647
Cr2Cl2S2,0.46
Cr2Cl2Se2,0.263
Cr2Cl6,1.737
Cr2Cu2O8,0.118
Cr2Cu2P4S12,1.081
Cr2F4,1.398
Cr2Ge2Te6,0.379
Cr2I2S2,0.376
Cr2I2Se2,0.169
Cr2I6,1.263
Cr2Mo2S8,1.067
Cr2Mo2Se8,0.89
Cr2Mo2Te8,0.647
Cr2P2Se6,0.453
Cr2Si2Te6,0.541
Cr2Ta4O12,0.202
Cr2W2S8,1.039
Cr2W2Se8,0.866
Cr2W2Te8,0.617
Cr3MoS8,0.944
Cr3MoSe8,0.768
Cr3MoTe8,0.542
Cr3WS8,0.929
Cr3WSe8,0.757
Cr3WTe8,0.533
CrMo3S8,1.251
CrMo3Se8,1.037
CrMo3Te8,0.752
CrMoF6,0.306
CrO2,0.13899999999999998
CrS2,0.305
CrSSe,0.4135
CrSTe,0.1355
CrSe2,0.247
CrSeTe,0.316
CrTe2,0.17566666666666667
CrW3S8,1.292
CrW3Se8,1.067
CrW3Te8,0.727
Cs2Br2,4.254
Cs2C2F6O6S2,5.638
Cs2C6N6Se6,1.975
Cs2Cl2,4.511
Cs2F2,4.231
Cs2F2H6O6P2,5.59
CsC2I3N2,2.539
Cu2As4Cl2S3,1.212
Cu2Br2,1.5394999999999999
Cu2Br2C4H4N2,0.704
Cu2Br2S4,0.946
Cu2Br2Se4,0.86
Cu2Br2Te4,0.921
Cu2Br6,0.119
Cu2C2Cl2O2,2.535
Cu2C4H4O8,0.208
Cu2C6H8I2N2,0.925
Cu2Cl2,1.3975
Cu2Cl2Se4,0.856
Cu2Cl2Te4,0.908
Cu2Cl6,0.223
Cu2F4,0.838
Cu2H4O10Se2,0.609
Cu2Hg2Cl2Se2,0.836
Cu2I2,2.06
Cu2I2S4,0.921
Cu2I2Se4,0.865
Cu2I2Te4,0.94
Cu2I4O12,0.749
Cu2MoO4,2.491
Cu2MoSe4,0.902
Cu2MoTe4,0.402
Cu2O4S,2.062
Cu2O6Si2,0.423
Cu2PtC6N8,1.635
Cu2ReCl6,0.512
Cu2ReF6,0.878
Cu2ReI6,0.394
Cu2S2,0.213
Cu2S4Sb2,0.388
Cu2Sb2Se4,0.2
Cu2Se2,0.1038
Cu2WO4,2.981
Cu2WS4,1.574
Cu2WSe4,1.266
Cu2WTe4,0.684
Cu3O4P,1.299
Cu4Cl4H4O4,0.402
Cu4Cl4O4,0.314
Cu4F4H4O4,0.388
Cu4Li2V2O12,0.09
Cu4O12Te2,0.467
CuBr,1.055
CuLi2O2,0.321
CuV2O6,0.189
F2Ge,1.601
F2Si2,0.683
Fe2Br6,0.091
Fe2Cl6,0.202
Fe2Mo2Cl2O8,0.948
Fe2S4,0.655
Fe2Se4,0.2885
Fe2Te4,0.216
Fe2W2Cl2O8,1.098
FeBr2,0.3356666666666667
FeCl2,0.41533333333333333
FeF2,0.134
FeGa2S4,0.866
FeHfBr6,0.974
FeHfCl6,1.12
FeHfF6,1.249
FeHfI6,0.869
FeI2,0.286
FeSn2C6N6,3.612
FeZn2C6N6,3.958
FeZrBr6,0.916
FeZrCl6,1.079
FeZrF6,1.225
FeZrI6,0.706
Ga2Br2,2.142
Ga2Br2O2,2.534
Ga2Br2S2,1.481
Ga2Br2Se2,0.734
Ga2Br6,2.083
Ga2Cl2,2.402
Ga2Cl2O2,3.674
Ga2Cl2S2,1.418
Ga2Cl2Se2,0.609
Ga2Cl2Te2,2.316
Ga2Cl6,3.1845
Ga2F4H10N4,2.656
Ga2Ge2Te2,0.763
Ga2H2O8Se2,4.304
Ga2I2,1.841
Ga2I2O2,1.014
Ga2I2S2,0.949
Ga2I2Se2,0.785
Ga2I6,0.86
Ga2In2S6,1.983
Ga2NiS4,0.167
Ga2O2,0.7785
Ga2P2Te6,0.46
Ga2S2,1.5013333333333332
Ga2Se2,1.056
Ga2Te2,0.7055
GaAs,0.575
GaN,1.878
GaP,1.587
Ge2H2,1.018
Ge2P2S6,1.407
Ge2P2Se6,0.983
Ge2P2Te6,0.831
Ge2S2,0.873
Ge2S4,0.286
Ge2Se2,0.578
Ge2Te2,0.4405
Ge2Te4,0.034
Ge3O9Sb2,3.861
GeH2O2,1.123
GeI2,1.701
GeO,2.141
GeO2,2.7016666666666667
GeS,2.474
GeS2,0.6913333333333332
GeSe,2.293
GeSe2,0.18733333333333335
GeTe,1.806
H2Si2,2.187
H4O10Si4,5.475
H4O12Te4,2.591
Hf2Br2N2,2.0564999999999998
Hf2Br4,0.882
Hf2CO2,1.008
Hf2Cl2N2,2.2505
Hf2Cl4,0.872
Hf2Ge2Te8,0.771
Hf2I2N2,1.389
Hf2I4,0.659
Hf2O6,3.477
Hf2P2S6,0.874
Hf2P2Se6,0.49
Hf2S2,0.026000000000000002
Hf2S6,1.172
Hf2Se6,0.41
Hf2Ti2S8,0.94
Hf2Ti2Se8,0.734
Hf2Ti2Te8,0.206
Hf2Zr2S8,1.153
Hf2Zr2Se8,0.905
Hf2Zr2Te8,0.382
Hf3C2O2,0.407
Hf3N2O2,0.297
Hf3TiS8,1.016
Hf3TiSe8,0.78
Hf3TiTe8,0.287
Hf3ZrS8,1.154
Hf3ZrSe8,0.906
Hf3ZrTe8,0.37
HfBr2,0.283
HfBrCl,0.473
HfBrI,0.4215
HfCl2,0.3363333333333333
HfClI,0.473
HfH2O2,0.358
HfI2,0.26
HfMnF6,0.702
HfMnI6,1.575
HfNa2H6O6,4.152
HfNiBr6,1.372
HfNiCl6,1.658
HfNiI6,1.02
HfO2,3.802666666666667
HfS2,1.54
HfSSe,0.9145
HfSTe,0.087
HfSe2,1.1056666666666668
HfSeTe,0.1495
HfTe2,0.5193333333333333
HfTi3S8,0.869
HfTi3Se8,0.662
HfTi3Te8,0.199
HfZr3S8,1.156
HfZr3Se8,0.872
HfZr3Te8,0.415
Hg2GeO4,2.598
Hg2I2,0.713
Hg2K4Cl8,3.345
Hg2O4,0.21
Hg2P2S6,1.034
Hg2P2Se6,0.614
Hg2P2Te6,0.326
Hg2Te2,0.068
Hg2V2O6,2.206
Hg3B2O6,3.513
Hg4I8,1.954
Hg4K2Cl6O6S2,3.28
Hg4Mo2O8,2.304
Hg4W2O8,2.566
HgBr2,2.013666666666667
HgCl2,2.393333333333333
HgF2,2.268
HgH2O2,0.942
HgH2S2,2.381
HgI2,1.4876666666666667
HgO2,0.116
HgS,0.077
HgTe,0.126
I2Sb2,0.186
I6Sb2,2.229
ISSb,1.3784999999999998
ISbSe,1.2799999999999998
ISbTe,1.205
In2Br2,1.7294999999999998
In2Br2O2,2.324
In2Br2S2,1.904
In2Br2Se2,1.235
In2Br6,2.504
In2Cl2,1.9565000000000001
In2Cl2O2,2.608
In2Cl2S2,1.799
In2Cl2Se2,1.077
In2Cl6,3.316
In2F2,1.341
In2I2,1.4625
In2I2O2,1.232
In2I2S2,1.692
In2I2Se2,1.241
In2I6,1.4344999999999999
In2O2,0.194
In2P2S6,0.845
In2S2,0.6566
In2S4,0.41
In2Se2,1.1087500000000001
In2Se3,0.2475
In2Si2Te6,0.88
In2Te2,0.6577500000000001
In2Te4,0.3565
In2Te5,1.177
In4Br4Te4,2.252
In4Br8,1.661
In4I4Te4,1.987
InAs,0.41
InLiI4O12,2.837
InN,0.624
InNaI4O12,2.841
InP,1.11
InSb,0.718
Ir2Br2O2,0.162
Ir2Br2S2,0.242
Ir2Br6,0.847
Ir2Cl2O2,0.33
Ir2Cl2S2,0.227
Ir2Cl6,1.0995000000000001
Ir2I2S2,0.145
Ir2I6,0.754
Ir2Nb2Te8,0.027
Ir2O2,0.03833333333333334
Ir2P2S6,0.052
Ir2P2Se6,0.054
Ir2P2Te6,0.177
Ir2S2,0.0374
Ir2Se2,0.09759999999999999
Ir4S8,0.721
Ir4Se8,0.871
Ir4Te8,0.607
K2Br2,4.467
K2C2H2O6,4.463
K2C2O6,1.05
K2C4,0.378
K2C4H6O6,4.672
K2C6H6O6,2.647
K2Cl2,4.894
K2Cl2O6,5.443
K2F2,4.987
K2I2,4.129
K2N2O6,3.166
K2Os2F10N2O2,0.899
Li2Cl2O4,3.35
Li2F2O2,2.913
Li2F2S2,1.69
Li2H2O2,3.947
Li2H2S2,3.994
Li2H4N2,2.805
Li2H4N2O6,2.638
Li2PtH6O6,2.989
Li2V4O10,0.309
Li4CO4,3.421
Li4O8Sb4,3.277
Li6H2O8Te2,4.062
LiC5H5N2O5,3.246
Mg2Cl4,4.507
Mg2Mo2O12Te2,3.193
Mg2P2S6,2.797
Mg2P2Se6,2.061
MgB2H8,6.082
MgBr2,4.2684999999999995
MgCl2,5.363333333333333
MgF2O2,2.982
MgF2S2,2.515
MgH2O2,3.364
MgH2S2,3.518
MgI2,3.3285
MgNa2H4O8S2,4.454
Mn2Br2S4Sb2,0.127
Mn2Br2Sb2Se4,0.276
Mn2Cl2N2,0.175
Mn2Cl2S4Sb2,0.364
Mn2Cl6,0.019
Mn2H4O8S2,2.129
Mn2I2Sb2Se4,0.026
Mn2Mo2O12Te2,1.588
Mn2O8Se2,0.01
Mn2P2S6,0.102
MnBr2,1.686
MnCl2,1.8499999999999999
MnF12Sb2,1.743
MnH2O2,0.262
MnI2,1.3099999999999998
MnNa2F3O7P2,0.035
MnO2,0.3773333333333333
MnRe2O8,1.579
MnS2,0.008333333333333333
MnZrBr6,1.679
MnZrCl6,0.312
MnZrF6,0.664
MnZrI6,1.219
Mo2Br4O4,1.484
Mo2Cl6,0.6005
Mo2I6,1.014
Mo2O10P2,1.043
Mo2O6,2.07
Mo2S4,0.0845
Mo2Se4,0.012
Mo2Ta2O11,2.713
Mo2W2S8,1.697
Mo2W2Se8,1.452
Mo2W2Te8,1.067
Mo2Zn2O12Te2,3.143
Mo2Zn2O8,2.956
Mo2ZrO8,3.243
Mo3WS8,1.674
Mo3WSe8,1.446
Mo3WTe8,1.072
MoO2,0.30533333333333335
MoOS,1.067
MoOSe,0.768
MoOTe,0.201
MoS2,0.5493333333333333
MoSSe,0.7705
MoSTe,0.6415
MoSe2,0.4776666666666667
MoSeTe,0.6965
MoTe2,0.359
MoW3S8,1.754
MoW3Se8,1.503
MoW3Te8,1.077
Na2B2H8O8,4.682
Na2C2H6N8O2,4.819
Na2C2N2S2,4.122
Na2F2O2,2.826
Na2F2S2,1.846
Na2H2O2,3.1639999999999997
Na2H2S2,3.586
Na2H8I2O4,3.825
Na2Nb2Cl12,2.307
Na2PtH6O6,3.029
Na2SnH6O6,3.938
Na2Ta2Cl12,2.894
Na4As4O8,4.342
Na4O8S4,2.385
Nb2Br4O2,1.045
Nb2Br4S4,1.563
Nb2Br4Se4,1.099
Nb2Cl4S4,1.613
Nb2Cl4Se4,1.078
Nb2I2O4,1.229
Nb2I4O2,1.055
Nb2P2S6,0.546
Nb3Br7S,0.815
Nb3Br8,0.302
Nb3Cl7Te,0.788
Nb3Cl8,0.208
Nb3I7Te,0.626
Nb3I8,0.207
Nb4Ge2Te8,0.423
Nb4I2Te12,0.757
Nb4O8,0.461
Nb4S12,0.375
Nb4Si2Te8,0.529
Ni2As2O7,0.452
Ni2S4,0.84
Ni2Se4,1.03
Ni2Te4,0.963
NiBr2,0.2916666666666667
NiC2N2S2,0.649
NiC4H8N2O4,1.332
NiC6Cl2H4N2,0.862
NiCl2,0.4066666666666667
NiCl2O8,1.563
NiH2O2,1.086
NiI2,0.141
NiO2,0.42733333333333334
NiRe2O8,1.588
NiS2,0.20866666666666667
NiSe2,0.07766666666666668
NiZrBr6,1.356
NiZrCl6,1.639
NiZrF6,0.435
NiZrI6,1.004
O10P4,4.995
O14S2Te4,3.287
O4S8Sb8,1.961
O6Sb4,3.702
O8P2Sb2,4.408
O8Te4,2.788
OS2Sb2,0.623
OSb2Se2,0.572
OSb2Te2,0.567
Os2O4,0.335
Os2P2S6,0.084
Os2S4,0.399
Os2Se4,0.46499999999999997
Os2Te4,0.47450000000000003
OsBr2,0.4366666666666667
OsCl2,0.6723333333333333
OsH2O2,0.995
OsI2,0.3983333333333334
P2,1.929
P2Sb2Se6,1.08
P2Sb2Te6,0.72
P4,0.903
P8Si4,1.54
Pb2Br2,0.256
Pb2Br4,2.841
Pb2Cl2,0.2625
Pb2F2,0.102
Pb2O2,1.1753333333333333
Pb2P2S6,1.542
Pb2P2Se6,1.173
Pb2P2Te6,0.807
Pb2S2,0.7643333333333334
Pb2S4,1.308
Pb2Se2,0.43124999999999997
Pb2Se4,0.942
Pb2Se6,0.718
Pb2Te2,0.6166
Pb2Te4,0.347
Pb2Te6,0.45
Pb4O4,2.95
PbBr2,2.6843333333333335
PbCl2,2.968666666666667
PbF2,2.889
PbF4,2.721
PbH2O2,1.779
PbI2,2.3746666666666667
PbO,1.794
PbO2,0.8256666666666667
PbS,2.046
PbS2,1.238
PbSb2Te4,0.76
PbSe,1.883
PbSe2,0.7793333333333333
PbTe,1.639
PbWO4,3.322
Pd2Cl4,0.886
Pd2F2,0.452
Pd2I4O12,1.08
Pd2N4O12,1.444
Pd2O6Se2,0.9125
Pd2S4,1.145
Pd2Se4,1.324
Pd2Te4,1.276
Pd3P2S8,1.852
Pd4I8,1.138
Pd4P4S4,1.202
Pd4P4Se4,1.113
Pd4Tl2Se6,0.908
PdBr2,0.06366666666666666
PdCl2,0.15266666666666667
PdO2,0.4593333333333333
PdS2,0.4066666666666667
PdSe2,0.24566666666666667
PdTe2,0.08266666666666667
Pt2Br2N2,0.022
Pt2Cl2,0.802
Pt2Cl2N2,0.224
Pt2Cl6,0.01
Pt2O2,0.09566666666666666
Pt2P2Se6,0.378
Pt2S4,1.887
Pt2Se4,1.519
Pt2Te4,1.384
Pt4I8,1.39
Pt4Tl2S6,1.617
Pt4Tl2Se6,1.28
Pt4Tl2Te6,0.816
PtBr2,0.03866666666666667
PtCl2,0.123
PtF2,0.408
PtO2,0.5539999999999999
PtS2,0.5790000000000001
PtSe2,0.457
PtTe2,0.25033333333333335
Rb2Br2,4.298
Rb2Br2F8,3.508
Rb2C2F6O6S2,5.749
Rb2C4,0.487
Rb2Cl2,4.68
Rb2F2,4.575
Rb2I2,3.979
Re2I2,0.0465
Re2I4,0.165
Re2ZnO8,4.039
Re4O8,1.522
Re4S8,1.419
Re4Se8,1.239
Re4Te8,0.912
Re6Cl2Se8,1.284
Rh2Br6,0.846
Rh2Cl2Te2,1.07
Rh2Cl4,0.406
Rh2Cl6,0.9165000000000001
Rh2I6,0.6235
Rh2P2Se6,0.017
Rh2Se2,0.0224
Rh2Ta2Te8,0.037
Rh4S8,0.599
Rh4Se8,0.581
Ru2F8,0.632
Ru2O4,0.132
Ru2P2S6,0.356
Ru2P2Se6,0.089
Ru2P2Te6,0.154
Ru2S4,0.381
Ru2Se4,0.406
Ru2Se6,0.247
Ru2Te4,0.42700000000000005
RuBr2,0.4416666666666667
RuCl2,0.5439999999999999
RuH2O2,0.517
RuI2,0.35366666666666663
S2Sb2,0.13466666666666668
S2Sb2Se,0.689
S2Sb2Te,1.059
S2Si,1.383
S2Si2,0.7115
S3Sb2,0.679
S8Si4,3.428
SSb2Se2,0.561
SSb2Te2,0.726
Sb2,1.279
Sb2Se2,0.29633333333333334
Sb2Se2Te,0.741
Sb2Se3,0.525
Sb2SeTe2,0.634
Sb2Te3,0.652
Sb4,0.133
Sc2Br2O2,3.232
Sc2Br2S2,2.165
Sc2Br2Se2,1.581
Sc2Br6,2.9105
Sc2CCl2,0.893
Sc2CF2,1.022
Sc2CH2O2,0.427
Sc2Cl2O2,4.245
Sc2Cl2S2,2.116
Sc2Cl2Se2,1.45
Sc2Cl6,3.5815
Sc2I2O2,1.879
Sc2I2S2,1.814
Sc2I2Se2,1.564
Sc2I6,2.1734999999999998
Sc2O13Te5,3.211
Sc2O2,0.23399999999999999
Sc2P2S6,0.831
Sc2P2S8,1.896
Sc2P2Se6,0.708
Sc2S2,0.08399999999999999
Sc2Se2,0.0828
Sc2Te2,0.067
Sc4I4O4,1.982
Sc4S6,1.518
ScBr2,0.053
ScCl2,0.036
ScH2,0.366
ScI2,0.036
ScO2,0.732
ScS2,0.23966666666666667
ScSe2,0.18899999999999997
Se2Si,0.465
Se2Si2,0.605
Si2Te2,0.2165
Sn2Br2N2,1.36
Sn2C2H6O6P2,4.06
Sn2Cl2N2,1.406
Sn2F2O6P2,4.015
Sn2H2,0.474
Sn2H2O6P2,4.367
Sn2I2N2,1.142
Sn2O2,1.8816666666666666
Sn2O6P2,0.701
Sn2O8S2,4.441
Sn2P2S6,1.048
Sn2P2Se6,0.73
Sn2P2Te6,0.37
Sn2S2,0.747
Sn2Se2,0.506
Sn2Se4,0.488
Sn2Te2,0.3905
SnBr2,2.0323333333333333
SnCl2,2.218666666666667
SnF2,1.658
SnF4,4.101
SnH2O2,0.906
SnI2,1.848
SnO,1.713
SnO2,1.817
SnS,2.314
SnS2,1.2746666666666666
SnSe,2.245
SnSe2,0.5653333333333334
SnTe,1.926
SnTe2,0.12266666666666666
Sr2Br2H2,4.356
Sr2Cl4O8,2.727
Sr2F2I2,4.523
Sr2H8O6,4.414
Sr2O12P4,5.087
SrBr2,4.684333333333334
SrCl2,5.328666666666667
SrF2,6.023
SrF2O2,2.863
SrH2O2,3.722
SrH2S2,3.834
SrI2,4.079
Ta2I4O2,0.922
Ta2P2Se6,0.3
Ta2P2Te6,0.209
Ta3I7Se,0.7
Ta3I7Te,0.666
Ta4O8,0.591
TaO2,0.19133333333333333
Ti2Br2N2,0.621
Ti2Br6,0.0855
Ti2CO2,0.333
Ti2Cl2N2,0.62
Ti2Cl4,0.321
Ti2I2N2,0.096
Ti2I4,0.157
Ti2I6,0.204
Ti2O4,2.855
Ti2O6,2.461
Ti2S2,0.0106
Ti2S6,0.297
Ti2Te2,0.0852
Ti2Zr2S8,0.857
Ti2Zr2Se8,0.684
Ti2Zr2Te8,0.263
Ti3ZrS8,0.852
Ti3ZrSe8,0.616
Ti3ZrTe8,0.219
Ti4O8,1.894
TiBr2,0.26466666666666666
TiBrCl,0.43
TiBrI,0.368
TiCl2,0.30733333333333335
TiClI,0.3975
TiI2,0.22333333333333336
TiO2,2.468
TiS2,0.6766666666666666
TiSSe,0.2845
TiSTe,0.0885
TiSe2,0.5203333333333333
TiSeTe,0.0825
TiTe2,0.242
TiZr3S8,1.0
TiZr3Se8,0.736
TiZr3Te8,0.363
Tl2Br2,3.1905
Tl2Br2O2,1.022
Tl2Br6,1.5305
Tl2Cl2,3.5115
Tl2Cl2O2,1.042
Tl2Cl4,1.911
Tl2Cl6,2.0675
Tl2I2,2.8585000000000003
Tl2I2O2,0.288
Tl2I2S2,0.123
Tl2I6,0.7010000000000001
Tl2O6Sb2,2.918
Tl2S2,0.32625000000000004
Tl2Se2,0.257
Tl2Te2,0.23025
V2F2O7Te2,1.115
V2F8,0.597
V2H4O10Se2,0.894
V2O10P2,1.567
V2O5,1.357
V2S2,0.0454
V2Se2,0.055200000000000006
V2Te2,0.1002
V4F12O4,3.466
V4O10,1.8873333333333333
V4O8,0.304
VBr2,0.41766666666666663
VBr2O,0.385
VBrCl,0.648
VBrI,0.606
VCl2,0.45133333333333336
VCl2O,0.403
VClI,0.5775
VI2,0.4033333333333333
VSe2,0.08233333333333333
VSeTe,0.065
VTe2,0.079
W2Br6,0.416
W2Cl4O4,2.308
W2Cl6,0.9339999999999999
W2H4O8,0.774
W2I6,0.3905
W2O12Sb4,1.85
WO2,0.47733333333333333
WOS,1.552
WOSe,1.309
WOTe,0.716
WS2,0.6053333333333334
WSSe,0.848
WSTe,0.7525000000000001
WSe2,0.5176666666666666
WSeTe,0.716
WTe2,0.3586666666666667
Y2Br6,3.868
Y2CF2,1.121
Y2CH2O2,0.46
Y2Cl2O2,4.4
Y2Cl2O4,0.366
Y2Cl6,4.7745
Y2I6,2.9059999999999997
Y3N2O2,0.244
YBr2,0.11599999999999999
YCl2,0.12466666666666666
YI2,0.05266666666666667
Zn2As4O8,3.629
Zn2Cl4O6Sb4,3.339
Zn2Ge2O6,2.746
Zn2H4O8Se2,4.5
Zn2H8N4Te2,1.913
Zn2I2,1.0755
Zn2O6Si2,3.402
Zn2P2S6,2.087
Zn2P2Se6,1.311
Zn2P2Te6,0.651
Zn2S2,1.2865
Zn2S4,1.694
Zn2Se2,1.3073333333333332
Zn2Se4,1.388
Zn2Te2,0.434
Zn2Te4,0.977
Zn4Cl4O4,0.14
ZnBr2,3.1566666666666663
ZnC4N6,5.039
ZnCl2,4.067
ZnF2,4.441
ZnH2O2,2.35
ZnI2,2.014
Zr2Br2N2,1.732
Zr2Br4,0.585
Zr2CO2,0.968
Zr2Cl2N2,1.888
Zr2Cl4,0.612
Zr2Ge2Te8,0.695
Zr2I2N2,1.0135
Zr2I4,0.433
Zr2O6,3.59
Zr2P2S6,0.761
Zr2P2Se6,0.402
Zr2S2,0.0264
Zr2S6,1.185
Zr2Se2,0.0164
Zr2Se6,0.498
Zr2Te10,0.17
Zr2Te2,0.15560000000000002
Zr3C2O2,0.381
Zr3F2N2O2,0.921
Zr3N2O2,0.399
ZrBr2,0.28933333333333333
ZrBrCl,0.475
ZrBrI,0.4175
ZrCl2,0.3376666666666666
ZrClI,0.4665
ZrH2O6P2,4.287
ZrI2,0.25733333333333336
ZrO2,3.5216666666666665
ZrS2,1.3780000000000001
ZrSSe,0.813
ZrSTe,0.1725
ZrSe2,0.9436666666666667
ZrSeTe,0.2085
ZrTe2,0.47933333333333333