Formula,Work function (avg. if finite dipole)
MnC6N4Se2,5.315
MnCl2,5.552666666666667
MnF12Sb2,7.1
MnF2,6.234
MnH2,4.681
MnH2O2,1.819
MnI2,4.832
MnNa2F3O7P2,7.817
MnO2,6.644000000000001
MnRe2O8,5.988
MnS2,5.43
MnSe2,5.080666666666667
MnTe2,4.657
MnZrBr6,5.356
MnZrCl6,4.95
MnZrF6,5.192
MnZrI6,5.057
Mo2BO2,6.046
Mo2BS2,5.326
Mo2BSe2,4.757
Mo2Br2,4.526999999999999
Mo2Br2N2,5.333
Mo2Br2O2,4.733
Mo2Br2S2,5.389
Mo2Br2Se2,5.152
Mo2Br4,3.401
Mo2Br4O4,6.211
Mo2C,4.782
Mo2CF2,5.867
Mo2CH2O2,2.127
Mo2CO2,6.365
Mo2CS2,5.444
Mo2CSe2,4.811
Mo2Cl2,4.8195
Mo2Cl2N2,5.697
Mo2Cl2O2,5.133
Mo2Cl2S2,5.074
Mo2Cl2Se2,5.015
Mo2Cl4,3.803
Mo2Cl6,4.983499999999999
Mo2F2,5.453
Mo2F2N,5.613
Mo2H2NO2,2.312
Mo2I2,3.964
Mo2I2N2,4.786
Mo2I2O2,4.285
Mo2I2S2,4.747
Mo2I2Se2,4.784
Mo2I4,3.318
Mo2I6,4.719
Mo2N,5.004
Mo2NO2,6.83
Mo2NS2,5.455
Mo2NSe2,4.928
Mo2O10P2,5.373
Mo2O2,5.677333333333333
Mo2O4,6.688
Mo2O6,7.51
Mo2P2S6,4.262
Mo2P2Se6,4.715
Mo2P2Te6,4.364
Mo2S2,4.917
Mo2S4,5.218500000000001
Mo2S6,4.865
Mo2Se2,4.5656
Mo2Se4,4.8675
Mo2Se6,4.883
Mo2Ta2O11,7.321
Mo2Te2,4.051
Mo2Te4,4.546
Mo2Te6,4.477
Mo2V2O10,5.671
Mo2W2S8,4.938
Mo2W2Se8,4.417
Mo2W2Te8,4.173
Mo2Zn2O12Te2,6.413
Mo2Zn2O8,6.151
Mo2ZrO8,7.19
Mo3C2,4.813
Mo3C2F2,6.023
Mo3C2H2O2,1.997
Mo3C2O2,6.376
Mo3F2N2,5.539
Mo3H2N2O2,2.463
Mo3N2,5.071
Mo3N2O2,7.079
Mo3WS8,5.016
Mo3WSe8,4.493
Mo3WTe8,4.235
Mo4C3,4.801
Mo4C3F2,5.97
Mo4C3H2O2,1.676
Mo4C3O2,6.058
Mo4F2N3,4.628
Mo4H2N3O2,1.89
Mo4N3,5.6
Mo4N3O2,5.816
MoAs2,5.02
MoAsSb,4.871
MoBr2,3.893333333333333
MoBrCl,3.8040000000000003
MoBrI,3.738
MoCl2,4.151666666666666
MoClI,3.7205
MoF2,5.761
MoH2,4.825
MoH2O2,2.63
MoI2,3.818
MoO2,5.703333333333333
MoOS,5.281
MoOSe,4.903
MoOTe,4.567
MoS2,5.085
MoSSe,4.8245000000000005
MoSTe,4.640000000000001
MoSb2,4.667999999999999
MoSe2,4.61
MoSeTe,4.423500000000001
MoTe2,4.306666666666667
MoW3S8,4.834
MoW3Se8,4.321
MoW3Te8,4.109
N2Si6,4.561
Na,2.816
Na2B2H8O8,3.649
Na2C2H6N8O2,4.149
Na2C2N2S2,3.571
Na2C4,6.79
Na2F2O2,4.749
Na2F2S2,3.706
Na2H2O2,3.003
Na2H2S2,3.434
Na2H8I2O4,4.133
Na2Nb2Cl12,6.518
Na2Ni2As2,2.152
Na2Ni2P2,2.172
Na2Ni2Sb2,2.282
Na2PtH6O6,3.192
Na2SnH6O6,3.947
Na2Ta2Cl12,6.38
Na4As4O8,3.597
Na4O8S4,3.565
NaBr4C6O2,4.817
NaNb3O4,3.059
NaW2Br6O2,5.271
Nb2As2Ge2,4.952
Nb2BO2,5.736
Nb2BS2,5.714
Nb2BSe2,5.232
Nb2Br2,3.4405
Nb2Br2N2,4.959
Nb2Br2O2,4.705
Nb2Br2S2,5.116
Nb2Br2Se2,4.992
Nb2Br4O2,5.13
Nb2Br4S4,4.836
Nb2Br4Se4,4.692
Nb2Br6,4.564
Nb2C,4.536
Nb2CF2,4.343
Nb2CH2O2,2.146
Nb2CO2,5.76
Nb2CS2,5.635
Nb2CSe2,5.018
Nb2Cl2,3.3
Nb2Cl2N2,5.287
Nb2Cl2O2,5.12
Nb2Cl2S2,5.329
Nb2Cl2Se2,5.206
Nb2Cl4,3.399
Nb2Cl4S4,4.853
Nb2Cl4Se4,4.699
Nb2Cl6,4.8985
Nb2F2,4.3115000000000006
Nb2F2N,5.031
Nb2Ge2Sb2,4.742
Nb2H2NO2,2.276
Nb2I2,2.8955
Nb2I2N2,4.489
Nb2I2O2,4.253
Nb2I2O4,5.084
Nb2I2S2,4.759
Nb2I2Se2,4.698
Nb2I4,2.98
Nb2I4O2,4.703
Nb2I6,4.3985
Nb2N,4.624
Nb2NO2,5.631
Nb2NS2,5.433
Nb2NSe2,4.794
Nb2Ni2Te10,4.711
Nb2O2,4.699
Nb2O4,5.619
Nb2O6,6.637
Nb2Os2Te8,4.586
Nb2P2S6,4.059
Nb2P2Se6,4.473
Nb2P2Te6,4.5
Nb2Pd2Te10,4.686
Nb2PdS6,5.657
Nb2PdSe6,5.188
Nb2S2,4.9268
Nb2S6,4.761
Nb2Se2,4.8222000000000005
Nb2Se6,4.662
Nb2Te2,4.505599999999999
Nb2Te4,4.9
Nb2Te6,4.279
Nb3Br7S,5.055
Nb3Br8,4.434
Nb3C2,4.408
Nb3C2F2,4.807
Nb3C2H2O2,1.89
Nb3C2O2,5.194
Nb3Cl7Te,4.937
Nb3Cl8,4.584
Nb3F2N2,5.237
Nb3H2N2O2,2.116
Nb3I7Te,4.689
Nb3I8,4.236
Nb3N2,5.072
Nb3N2O2,5.433
Nb3Te6,4.711
Nb4C3,4.411
Nb4C3F2,4.754
Nb4C3H2O2,1.964
Nb4C3O2,5.595
Nb4F2N3,4.235
Nb4Ge2Te8,4.415
Nb4H2N3O2,2.34
Nb4I2Te12,4.405
Nb4N3,4.796
Nb4N3O2,5.358
Nb4Ni4Te8,4.392
Nb4O8,5.252
Nb4S12,4.689
Nb4Si2Te8,4.351
Nb6Ge2Te12,4.8
Nb6Si2Te12,4.739
Nb8C4,5.095
NbAs2,5.2235
NbAsSb,5.019
NbBr2,3.830666666666667
NbBrCl,3.742
NbBrI,3.5055
NbCl2,4.169666666666667
NbClI,3.6310000000000002
NbF2,5.823
NbF4,5.129
NbH2,4.808
NbH2O2,2.128
NbI2,3.5843333333333334
NbO2,5.281
NbS2,5.419999999999999
NbSSe,5.416
NbSTe,4.981999999999999
NbSb2,4.6895
NbSe2,5.048
NbSeTe,4.895
NbTe2,4.731000000000001
Ni2As2O7,5.787
Ni2Br2,4.323
Ni2Br2N2,5.686
Ni2Br2O2,5.753
Ni2Br2S2,5.384
Ni2Br2Se2,5.306
Ni2Br6,6.147
Ni2Cl2,4.6635
Ni2Cl2N2,6.402
Ni2Cl2O2,6.251
Ni2Cl2S2,5.761
Ni2Cl2Se2,5.695
Ni2Cl6,6.811
Ni2F2,6.724
Ni2F2O4,6.606
Ni2F2S4,5.544
Ni2H2O4,4.462
Ni2H2S4,5.067
Ni2I2,4.0575
Ni2I2N2,4.611
Ni2I2O2,4.991
Ni2I2S2,4.908
Ni2I2Se2,4.814
Ni2I6,5.359
Ni2O2,5.637333333333333
Ni2P2S6,5.223
Ni2P2Se5,4.592
Ni2P2Se6,4.882
Ni2P2Te6,4.328
Ni2S2,5.214799999999999
Ni2S4,4.868
Ni2S6,5.537
Ni2Sb2Si2,4.17
Ni2SbTe2,4.696
Ni2Se2,4.835
Ni2Se4,4.686
Ni2Se6,5.377
Ni2Ta2Te10,4.695
Ni2Ta4S10,5.417
Ni2Ta4Se10,4.959
Ni2Te2,4.5316
Ni2Te4,4.483
Ni2Te6,4.515
Ni4Ta2Se2Te2,4.495
Ni4Ta2Te4,4.32
Ni4Ta2Te6,4.511
Ni4Ta4Te8,4.24
Ni8As4Si4,4.702
NiBr2,5.676666666666667
NiC10Cl2N2,6.147
NiC12Cl2N2,6.107
NiC2N2S2,5.292
NiC4Cl2N2,6.652
NiC4H8N2O4,4.23
NiC6Cl2H4N2,4.717
NiCl2,5.981999999999999
NiCl2O8,7.147
NiF2,6.102
NiH2,4.739
NiH2O2,1.986
NiI2,5.083333333333333
NiO2,7.379666666666666
NiPS3,5.336
NiRe2O8,6.935
NiS2,4.924
NiSe2,4.731333333333333
NiTe2,4.329666666666667
NiV2Se4,5.276
NiZrBr6,5.85
NiZrCl6,6.308
NiZrF6,6.561
NiZrI6,5.258
O10P4,6.898
O14S2Te4,6.61
O2Sb,5.725
O4S8Sb8,4.448
O6Sb4,3.923
O8P2Sb2,4.544
O8Te4,4.728
OS2Sb2,5.806
OSb2Se2,5.327
OSb2Te2,4.599
Os2Br2,4.8695
Os2Br2N2,4.753
Os2Br2O2,4.124
Os2Br2S2,5.402
Os2Br2Se2,5.31
Os2Br6,4.7165
Os2Cl2,5.346500000000001
Os2Cl2N2,5.165
Os2Cl2O2,4.478
Os2Cl2S2,5.801
Os2Cl2Se2,5.643
Os2Cl6,5.0025
Os2F2,7.898
Os2I2,3.4915000000000003
Os2I2O2,3.631
Os2I2S2,4.859
Os2I2Se2,4.843
Os2I6,4.432
Os2O2,5.767
Os2O4,6.142
Os2P2S6,5.016
Os2P2Se6,4.936
Os2P2Te6,4.671
Os2S2,4.462000000000001
Os2S4,5.258
Os2Se2,4.075
Os2Se4,4.874499999999999
Os2Se6,4.948
Os2Ta2Te8,4.523
Os2Te2,3.9504000000000006
Os2Te4,4.5175
Os2Te6,4.605
OsBr2,4.009
OsCl2,4.290666666666667
OsCl2O,4.924
OsF2,6.219
OsH2,4.912
OsH2O2,1.846
OsI2,3.7880000000000003
OsO2,6.402
OsS2,4.993333333333333
OsSe2,4.501333333333334
OsTe2,4.185666666666666
P2,5.206
P2Sb2Se6,4.686
P2Sb2Te6,4.376
P2Si6,4.406
P4,4.602
P8Si4,4.977
Pb2Br2,5.590999999999999
Pb2Br2N2,6.481
Pb2Br2O2,6.216
Pb2Br2S2,6.489
Pb2Br2Se2,5.914
Pb2Br4,5.331
Pb2Cl2,5.8345
Pb2Cl2N2,6.882
Pb2Cl2O2,6.563
Pb2Cl2S2,6.781
Pb2Cl2Se2,6.091
Pb2F2,5.215
Pb2I2,5.295
Pb2I2N2,5.952
Pb2I2O2,5.853
Pb2I2S2,6.048
Pb2I2Se2,6.005
Pb2O2,3.7886666666666664
Pb2P2S6,5.286
Pb2P2Se6,5.1
Pb2P2Te6,4.826
Pb2S2,4.105333333333333
Pb2S4,4.362
Pb2Se2,4.3905
Pb2Se4,4.283
Pb2Se6,4.976
Pb2Te2,4.4799999999999995
Pb2Te4,4.209
Pb2Te6,4.823
Pb4O4,3.595
Pb6As2,4.348
Pb6N2,3.843
Pb6P2,4.297
Pb6Sb2,4.404
PbBr2,5.889
PbCl2,6.090333333333334
PbF2,5.123
PbF4,9.143
PbH2O2,3.021
PbI2,5.445666666666667
PbO,4.969
PbO2,7.659
PbS,4.831
PbS2,5.631333333333334
PbSb2Te4,4.91
PbSe,4.619
PbSe2,5.223333333333334
PbTe,4.171
PbTe2,4.966666666666667
PbWO4,5.666
Pd2Br2,5.461
Pd2Br2N2,5.916
Pd2Br2O2,5.417
Pd2Br2S2,5.35
Pd2Br6,6.0115
Pd2Cl2,6.0120000000000005
Pd2Cl2N2,6.548
Pd2Cl2O2,5.737
Pd2Cl2S2,5.754
Pd2Cl2Se2,5.71
Pd2Cl4,5.985
Pd2Cl6,6.582
Pd2F2,7.361
Pd2I2,4.6835
Pd2I2N2,4.598
Pd2I2O2,4.901
Pd2I2S2,4.834
Pd2I2Se2,4.866
Pd2I4O12,5.27
Pd2I6,5.3260000000000005
Pd2N4O12,6.284
Pd2O2,6.434
Pd2O6Se2,4.771000000000001
Pd2P2S6,5.162
Pd2P2Se6,4.778
Pd2P2Te6,4.404
Pd2S2,5.472
Pd2S4,4.987
Pd2Se2,5.082
Pd2Se4,4.747
Pd2Te2,4.6930000000000005
Pd2Te4,4.518
Pd3P2S8,5.579
Pd3Ta3Te14,4.521
Pd4I8,5.257
Pd4P4S4,5.186
Pd4P4Se4,4.973
Pd4Tl2Se6,4.408
Pd6Ta4Te10,4.461
PdBr2,5.749
PdCl2,6.288333333333334
PdF2,8.13
PdH2O2,2.479
PdI2,5.1290000000000004
PdO,5.402
PdO2,6.5776666666666666
PdS2,5.146
PdSe2,4.509666666666667
PdTa2S6,5.585
PdTa2Se6,5.128
PdTe2,4.203333333333333
Pt2Br2,5.209
Pt2Br2N2,5.244
Pt2Br2O2,4.477
Pt2Br2S2,4.692
Pt2Br2Se2,4.7
Pt2Br6,5.4615
Pt2Cl2,5.4765
Pt2Cl2N2,5.672
Pt2Cl2O2,4.885
Pt2Cl2S2,5.061
Pt2Cl2Se2,5.01
Pt2Cl6,5.890000000000001
Pt2F2,7.856
Pt2I2,4.2605
Pt2I2N2,4.602
Pt2I2O2,4.411
Pt2I2S2,4.313
Pt2I2Se2,4.322
Pt2I4,4.463
Pt2I6,4.938000000000001
Pt2O2,5.914333333333334
Pt2P2S6,4.621
Pt2P2Se6,4.743
Pt2P2Te6,4.145
Pt2S2,5.110200000000001
Pt2S4,4.692
Pt2Se2,4.61
Pt2Se4,4.67
Pt2Se6,4.838
Pt2Ta2Te10,4.683
Pt2Ta4Se14,5.055
Pt2Te2,4.356833333333333
Pt2Te4,4.433
Pt2Te6,4.502
Pt4I8,4.752
Pt4Tl2S6,4.222
Pt4Tl2Se6,4.195
Pt4Tl2Te6,4.069
PtBr2,5.156666666666666
PtCl2,5.536666666666666
PtF2,7.676
PtH2,4.462
PtH2O2,2.158
PtI2,4.651666666666666
PtO2,6.826333333333333
PtS2,5.309666666666667
PtSe2,4.773333333333333
PtTe2,4.131333333333333
Rb2Br2,3.768
Rb2Br2F8,6.447
Rb2C2F6O6S2,4.237
Rb2C4,5.841
Rb2Cl2,3.765
Rb2F2,3.381
Rb2I2,3.699
RbI2,5.656
RbS2,6.961
RbSe2,6.242
RbSnS2,4.059
RbTe2,5.435
RbTiS2,4.215
Re2Br2,4.766500000000001
Re2Br4,3.376
Re2Br6,4.434
Re2Cl2,5.141
Re2Cl4,3.575
Re2Cl6,4.706
Re2F2,6.4079999999999995
Re2I2,4.1555
Re2I4,3.623
Re2I6,4.1665
Re2N2,5.42
Re2O2,5.445666666666667
Re2O4,6.506
Re2S2,4.436999999999999
Re2S4,5.025
Re2Se2,3.9135
Re2Se4,4.438
Re2Te2,3.8335
Re2Te4,3.877
Re2ZnO8,6.915
Re4O8,6.032
Re4S8,5.086
Re4Se8,4.487
Re4Te8,4.103
Re6Cl2Se8,5.698
ReBr2,3.8000000000000003
ReCl2,3.961
ReF2,6.046
ReH2,4.951
ReI2,3.703
ReO2,6.561
ReS2,4.675
ReSe2,4.256
ReTe2,4.0553333333333335
Rh2Br2,4.6965
Rh2Br2N2,5.767
Rh2Br2O2,4.991
Rh2Br2S2,5.72
Rh2Br2Se2,5.799
Rh2Br4,4.71
Rh2Br6,5.416
Rh2Cl2,5.634
Rh2Cl2N2,6.295
Rh2Cl2O2,5.44
Rh2Cl2S2,6.235
Rh2Cl2Se2,6.271
Rh2Cl2Te2,4.894
Rh2Cl4,5.077
Rh2Cl6,5.9225
Rh2F2,7.4175
Rh2I2,3.9965
Rh2I2N2,4.719
Rh2I2O2,4.435
Rh2I2S2,5.116
Rh2I2Se2,5.186
Rh2I6,4.734
Rh2O2,5.997
Rh2O6,7.418
Rh2P2S6,4.675
Rh2P2Se6,4.586
Rh2P2Te6,4.232
Rh2S2,4.9064
Rh2S4,5.6315
Rh2Se2,4.4318
Rh2Se4,5.308
Rh2Ta2Te8,4.41
Rh2Te2,4.098999999999999
Rh2Te4,4.948
Rh2Te6,4.616
Rh4S8,5.694
Rh4Se8,5.199
RhBr2,5.114666666666667
RhCl2,5.477
RhF2,8.05
RhH2,5.086
RhH2O2,1.704
RhI2,4.541333333333333
RhO2,6.689333333333334
RhS2,5.518
RhSe2,4.922666666666667
RhTe2,4.511
Ru2Br2,5.037
Ru2Br2N2,5.342
Ru2Br2O2,4.806
Ru2Br2S2,5.847
Ru2Br2Se2,5.804
Ru2Br6,5.299
Ru2Cl2,5.54
Ru2Cl2N2,5.844
Ru2Cl2O2,5.226
Ru2Cl2S2,6.325
Ru2Cl2Se2,6.092
Ru2Cl6,5.614
Ru2F2,7.4765
Ru2F8,7.629
Ru2I2,3.6245000000000003
Ru2I2N2,4.699
Ru2I2O2,4.213
Ru2I2S2,5.231
Ru2I2Se2,5.211
Ru2I6,4.824
Ru2O2,5.914666666666666
Ru2O4,6.661
Ru2P2S6,4.951
Ru2P2Se6,4.802
Ru2P2Te6,4.7
Ru2S2,4.7806
Ru2S4,5.3705
Ru2Se2,4.335
Ru2Se4,5.0155
Ru2Se6,4.465
Ru2Ta2Te8,4.602
Ru2Te2,4.09875
Ru2Te4,4.705500000000001
Ru2Te6,4.693
RuBr2,4.726666666666667
RuCl2,4.980333333333333
RuCl2O,5.794
RuF2,6.026
RuH2,5.339
RuH2O2,1.633
RuI2,4.2636666666666665
RuO2,5.983999999999999
RuS2,5.278666666666667
RuSe2,4.763
RuTe2,4.402666666666666
S2Sb,5.718333333333334
S2Sb2,4.77
S2Sb2Se,5.618
S2Sb2Te,5.477
S2Si,5.782
S2Si2,4.4399999999999995
S3Sb2,5.608
S4Sb2,4.24
S8Si4,4.893
SSb2Se2,5.254
SSb2Te2,4.782
Sb2,4.067
Sb2Se2,4.593
Sb2Se2Te,5.218
Sb2Se3,5.272
Sb2Se4,4.703
Sb2SeTe2,4.811
Sb2Si6,4.422
Sb2Te2,4.5465
Sb2Te3,4.797
Sb2Te4,4.705
Sb4,3.81
SbSe2,5.415333333333334
SbTe2,4.9126666666666665
Sc2Br2,3.951
Sc2Br2N2,7.186
Sc2Br2O2,5.635
Sc2Br2S2,5.616
Sc2Br2Se2,5.302
Sc2Br4,3.436
Sc2Br6,5.6745
Sc2C,4.098
Sc2CCl2,5.51
Sc2CF2,4.516
Sc2CH2O2,1.348
Sc2CO2,6.378
Sc2Cl2,4.3580000000000005
Sc2Cl2H2,3.798
Sc2Cl2N,4.426
Sc2Cl2N2,7.267
Sc2Cl2O2,6.208
Sc2Cl2S2,5.705
Sc2Cl2Se2,5.34
Sc2Cl4,3.642
Sc2Cl6,6.2155000000000005
Sc2F2,3.743
Sc2F2N,3.768
Sc2H2NO2,2.043
Sc2I2,3.7055
Sc2I2N2,5.842
Sc2I2O2,4.879
Sc2I2S2,5.245
Sc2I2Se2,5.098
Sc2I6,5.0645
Sc2N,4.313
Sc2NO2,7.272
Sc2O13Te5,4.413
Sc2O2,3.374333333333333
Sc2P2S6,4.834
Sc2P2S8,5.563
Sc2P2Se6,4.52
Sc2P2Te6,4.306
Sc2S2,4.2816
Sc2S4,6.695
Sc2S6,6.029
Sc2Se2,4.450799999999999
Sc2Se6,5.642
Sc2Te2,4.3751999999999995
Sc2Te4,4.372
Sc2Te6,4.981
Sc3C2,3.626
Sc3C2F2,5.213
Sc3C2H2O2,1.588
Sc3C2O2,3.947
Sc3F2N2,4.029
Sc3H2N2O2,1.793
Sc3N2,4.034
Sc3N2O2,6.399
Sc4C3,3.035
Sc4C3F2,5.06
Sc4C3H2O2,1.686
Sc4C3O2,6.306
Sc4F2N3,3.624
Sc4H2N3O2,2.043
Sc4I4O4,4.69
Sc4N3,3.923
Sc4N3O2,7.231
Sc4S6,4.567
ScBr2,3.709666666666667
ScCl2,3.8983333333333334
ScF2,4.266
ScH2,3.939
ScH2O2,2.54
ScI2,3.470333333333334
ScO2,7.1739999999999995
ScS2,6.508
ScSe2,5.981999999999999
ScTe2,5.445333333333333
Se2Si,5.409
Se2Si2,4.4105
Si2,4.605
Si2Te2,4.028499999999999
SiTe2,4.79
Sn2,4.269
Sn2Br2,5.3805
Sn2Br2N2,5.625
Sn2Br2O2,5.404
Sn2Br2S2,5.85
Sn2Br2Se2,5.862
Sn2C2H6O6P2,3.644
Sn2Cl2,5.6465
Sn2Cl2N2,5.88
Sn2Cl2O2,5.496
Sn2Cl2S2,6.112
Sn2Cl2Se2,6.127
Sn2F2,6.875
Sn2F2O6P2,4.807
Sn2H2,4.66
Sn2H2O6P2,3.997
Sn2I2,5.1370000000000005
Sn2I2N2,5.159
Sn2I2O2,5.128
Sn2I2S2,5.491
Sn2I2Se2,5.559
Sn2O2,3.6246666666666667
Sn2O6P2,4.799
Sn2O8S2,5.809
Sn2P2S6,5.012
Sn2P2Se6,4.832
Sn2P2Te6,4.565
Sn2PS6,5.545
Sn2S2,3.8975
Sn2Se2,3.9495
Sn2Se4,4.131
Sn2Te2,3.9855
Sn2Te4,4.079
Sn6As2,4.423
Sn6N2,4.088
Sn6P2,4.413
Sn6Sb2,4.427
SnBr2,5.386
SnCl2,5.573
SnF2,4.384
SnF4,8.579
SnH2O2,2.549
SnI2,4.984
SnO,5.075
SnO2,7.3453333333333335
SnS,4.937
SnS2,5.811333333333334
SnSe,4.653
SnSe2,5.370333333333334
SnTe,4.176
SnTe2,4.843333333333333
Sr2Br2,2.557
Sr2Br2H2,4.511
Sr2C,2.274
Sr2Cl4O8,3.517
Sr2F2,2.812
Sr2F2I2,4.319
Sr2H8O6,3.629
Sr2I2,3.627
Sr2N,3.329
Sr2O12P4,5.635
SrBr2,5.085666666666667
SrCl2,5.25
SrF2,5.014
SrF2O2,5.597
SrH2O2,3.144
SrH2S2,3.348
SrI2,4.692666666666667
SrSe2,6.346
SrTa2O7,9.505
SrTe2,5.311
Ta2BO2,5.543
Ta2BS2,5.537
Ta2BSe2,5.078
Ta2Br2,3.3325
Ta2Br2N2,4.46
Ta2Br2O2,4.378
Ta2Br2S2,4.831
Ta2Br2Se2,4.738
Ta2Br4,2.679
Ta2Br6,4.3134999999999994
Ta2C,4.771
Ta2CF2,3.887
Ta2CH2O2,2.563
Ta2CO2,5.522
Ta2CS2,5.405
Ta2CSe2,4.855
Ta2Cl2,3.3129999999999997
Ta2Cl2N2,4.904
Ta2Cl2O2,4.828
Ta2Cl2S2,5.041
Ta2Cl2Se2,4.932
Ta2Cl6,4.644
Ta2F2,4.1835
Ta2F2N,4.865
Ta2H2NO2,2.497
Ta2I2,3.4505
Ta2I2N2,4.096
Ta2I2O2,3.937
Ta2I2S2,4.538
Ta2I2Se2,4.467
Ta2I4,2.815
Ta2I4O2,4.544
Ta2I6,4.064
Ta2N,4.77
Ta2NO2,5.308
Ta2NS2,5.117
Ta2NSe2,4.607
Ta2O2,4.692333333333333
Ta2O4,5.373
Ta2O6,6.615
Ta2P2S6,4.922
Ta2P2Se6,4.853
Ta2P2Te6,4.593
Ta2S2,4.8812
Ta2S6,4.925
Ta2Se2,4.7802
Ta2Se6,4.588
Ta2Te2,4.4045
Ta2Te4,4.853
Ta2Te6,4.226
Ta3C2,4.69
Ta3C2F2,4.425
Ta3C2H2O2,2.394
Ta3C2O2,5.011
Ta3F2N2,5.008
Ta3H2N2O2,2.403
Ta3I7Se,4.529
Ta3I7Te,4.45
Ta3N2,5.29
Ta3N2O2,5.238
Ta4C3,4.729
Ta4C3F2,4.315
Ta4C3H2O2,2.396
Ta4C3O2,5.334
Ta4F2N3,3.768
Ta4H2N3O2,2.754
Ta4N3,4.928
Ta4N3O2,5.006
Ta4O8,5.055
Ta4Se12,5.02
Ta4Se2,3.72
Ta4Te6,4.568
Ta6Si2Te12,4.573
TaAs2,5.128
TaAsSb,4.958500000000001
TaBr2,3.593666666666667
TaBrCl,3.463
TaBrI,3.2435
TaCl2,3.8866666666666667
TaClI,3.377
TaF2,5.576
TaH2,4.517
TaI2,3.377333333333333
TaO2,5.324666666666666
TaS2,5.209666666666667
TaSSe,5.2205
TaSTe,4.846500000000001
TaSb2,4.470000000000001
TaSe2,4.816
TaSeTe,4.7385
TaTe2,4.513
Te2,4.907
Ti2BO2,5.898
Ti2BS2,5.991
Ti2BSe2,5.712
Ti2Br2,3.484
Ti2Br2N2,5.995
Ti2Br2O2,4.843
Ti2Br2S2,5.228
Ti2Br2Se2,5.061
Ti2Br6,4.8785
Ti2CF2,4.804
Ti2CH2O2,1.912
Ti2CO2,5.662
Ti2CS2,6.168
Ti2CSe2,5.422
Ti2Cl2,3.5084999999999997
Ti2Cl2N2,6.23
Ti2Cl2O2,5.192
Ti2Cl2S2,5.445
Ti2Cl2Se2,5.231
Ti2Cl4,4.487
Ti2Cl6,5.082
Ti2F2,4.8315
Ti2F2N,4.45
Ti2H2NO2,2.173
Ti2I2,3.3895
Ti2I2N2,5.309
Ti2I2O2,4.396
Ti2I2S2,4.916
Ti2I2Se2,4.795
Ti2I4,4.038
Ti2I6,4.668
Ti2N,4.583
Ti2NO2,5.734
Ti2NS2,5.79
Ti2NSe2,5.299
Ti2O2,4.013
Ti2O4,6.822
Ti2O6,6.723
Ti2P2S6,4.296
Ti2P2Se6,4.216
Ti2P2Te6,4.258
Ti2PTe2,4.883
Ti2S2,4.7782
Ti2S6,5.238
Ti2Se2,4.6152
Ti2Se6,4.85
Ti2Te2,4.414
Ti2Te6,4.696
Ti2Zr2S8,6.299
Ti2Zr2Se8,5.829
Ti2Zr2Te8,5.213
Ti3B2F2O2,7.469
Ti3B2F2S2,6.814
Ti3B2F2Se2,7.409
Ti3B2H2O2,1.444
Ti3B2H2S2,2.726
Ti3B2H2Se2,3.001
Ti3C2,3.975
Ti3C2F2,4.537
Ti3C2H2O2,1.986
Ti3C2H2S2,1.768
Ti3C2H2Se2,2.061
Ti3C2O2,6.142
Ti3F2N2,4.47
Ti3H2N2O2,2.33
Ti3H2N2S2,2.576
Ti3H2N2Se2,3.859
Ti3N2,4.598
Ti3N2O2,5.539
Ti3ZrS8,6.324
Ti3ZrSe8,5.839
Ti3ZrTe8,5.181
Ti4Br4O4,4.725
Ti4Br4S4,4.771
Ti4Br4Se4,4.714
Ti4C3,3.988
Ti4C3F2,4.573
Ti4C3H2O2,1.912
Ti4C3O2,6.014
Ti4Cl4O4,5.128
Ti4Cl4S4,5.099
Ti4Cl4Se4,4.971
Ti4F2N3,4.523
Ti4H2N3O2,2.235
Ti4I4O4,4.184
Ti4I4S4,4.358
Ti4I4Se4,4.354
Ti4N3,4.651
Ti4N3O2,5.664
Ti4O8,8.129
TiAs2,5.1415
TiAsSb,5.125500000000001
TiBr2,3.794
TiBrCl,3.792
TiBrI,3.5745
TiCl2,4.1209999999999996
TiClI,3.659
TiF2,6.2
TiH2,4.822
TiH2O2,2.117
TiI2,3.6673333333333336
TiO2,7.108
TiS2,6.023333333333333
TiSSe,5.685
TiSTe,5.0065
TiSb2,4.744
TiSe2,5.529
TiSeTe,5.037000000000001
TiTe2,4.970666666666666
TiZr3S8,6.301
TiZr3Se8,5.858
TiZr3Te8,5.247
Tl2Br2,4.135
Tl2Br2N2,6.738
Tl2Br2O2,6.605
Tl2Br4,6.253
Tl2Br6,6.4435
Tl2Cl2,4.061999999999999
Tl2Cl2N2,7.132
Tl2Cl2O2,7.0
Tl2Cl4,6.37
Tl2Cl6,7.0275
Tl2I2,4.1605
Tl2I2N2,5.974
Tl2I2O2,5.692
Tl2I2S2,5.915
Tl2I6,5.798
Tl2O2,5.388
Tl2O6Sb2,3.836
Tl2P2S6,5.824
Tl2P2Se6,5.393
Tl2P2Te6,4.94
Tl2S2,5.62725
Tl2S4,4.915
Tl2Se2,5.131
Tl2Se4,4.762
Tl2Te2,4.82825
Tl2Te4,4.568
TlBr2,6.245333333333334
TlCl2,6.535
TlF2,6.377
TlH2O2,2.895
TlI2,5.741666666666667
TlS2,6.637
TlSe2,5.922
TlTe2,5.155
V2BO2,6.4
V2BS2,5.722
V2BSe2,5.119
V2Br2,3.1109999999999998
V2Br2N2,5.569
V2Br2O2,5.057
V2Br2Se2,5.309
V2Br6,5.387499999999999
V2C,4.635
V2CF2,5.383
V2CH2O2,1.793
V2CO2,6.645
V2CS2,5.564
V2CSe2,4.932
V2Cl2,3.2110000000000003
V2Cl2N2,6.038
V2Cl2O2,5.315
V2Cl2Se2,5.52
V2Cl4,3.923
V2Cl6,5.6555
V2F2,4.6715
V2F2O7Te2,4.607
V2F8,7.28
V2H2NO2,2.017
V2H2O5,4.698
V2H4O10Se2,3.75
V2I2,2.988
V2I2N2,4.94
V2I2Se2,5.061
V2I6,5.0809999999999995
V2N,4.743
V2NS2,5.373
V2NSe2,4.693
V2O10P2,6.903
V2O2,4.9385
V2O4,6.208
V2O5,7.136
V2O6,5.553
V2P2S6,4.552
V2S2,4.9542
V2S4,4.982
V2S6,4.484
V2Se2,4.804399999999999
V2Se4,5.023
V2Se6,4.657
V2Te2,4.6536
V2Te4,4.848
V2Te6,4.705
V3B2F2S2,6.108
V3B2F2Se2,7.061
V3B2H2O2,1.881
V3B2H2S2,2.144
V3B2H2Se2,2.334
V3C2,4.395
V3C2F2,5.748
V3C2F2Se2,7.853
V3C2H2O2,1.71
V3C2H2S2,2.55
V3C2H2Se2,3.842
V3C2O2,6.383
V3F2N2,5.417
V3H2N2O2,2.324
V3H2N2S2,4.102
V3N2,5.136
V3N2O2,5.987
V3Te6,4.728
V4C3,4.523
V4C3F2,5.647
V4C3H2O2,1.808
V4C3O2,6.582
V4F12O4,8.088
V4F2N3,5.356
V4H2N3O2,1.88
V4N3,4.768
V4N3O2,6.195
V4O10,7.828
V4O8,6.739
VAs2,5.0935
VAsSb,5.021
VBr2,4.132333333333333
VBr2O,5.811
VBrCl,3.982
VBrI,4.003
VC4FH4O6,5.063
VCl2,4.287
VCl2O,6.141
VClI,3.932
VF2,6.444
VH2,4.9
VI2,4.124666666666666
VO2,6.521666666666667
VS2,5.662999999999999
VSSe,5.399
VSTe,4.926
VSb2,4.7675
VSe2,5.260000000000001
VSeTe,4.898
VTe2,4.882000000000001
W2BO2,5.885
W2BS2,5.17
W2BSe2,4.579
W2Br2,4.357
W2Br2N2,4.91
W2Br2O2,4.314
W2Br2S2,4.358
W2Br2Se2,4.367
W2Br6,4.022
W2C,5.153
W2CF2,5.674
W2CH2O2,2.476
W2CO2,5.938
W2CS2,5.155
W2CSe2,4.651
W2Cl2,4.5755
W2Cl2N2,5.245
W2Cl2O2,4.665
W2Cl2S2,4.718
W2Cl2Se2,4.705
W2Cl4,3.329
W2Cl4O4,6.954
W2Cl6,4.418
W2F2,5.425
W2F2N,5.132
W2H2NO2,2.579
W2H4O8,5.017
W2H6,5.112
W2H8,3.284
W2I2,3.9015
W2I2N2,4.485
W2I2O2,3.937
W2I2S2,4.399
W2I2Se2,4.461
W2I6,4.1455
W2N,5.337
W2N3,6.986
W2NO2,6.826
W2NS2,5.091
W2NSe2,4.618
W2O12Sb4,6.088
W2O2,5.686666666666667
W2O4,6.305
W2P2S6,5.022
W2P2Se6,4.686
W2P2Te6,4.381
W2S2,4.8686
W2S4,5.134
W2S6,4.848
W2Se2,4.2954
W2Se4,4.731
W2Te2,3.9286000000000003
W2Te4,4.4005
W2Te6,4.371
W3C2,4.97
W3C2F2,5.791
W3C2H2O2,2.21
W3C2O2,6.093
W3F2N2,5.006
W3H2N2O2,2.871
W3N2,5.484
W3N2O2,7.117
W4C3,5.092
W4C3F2,5.343
W4C3H2O2,1.962
W4C3O2,5.746
W4F2N3,4.36
W4H2N3O2,2.066
W4N3,5.341
W4N3O2,5.253
WAs2,4.852
WAsSb,4.673
WBr2,3.483
WBrCl,3.3865
WBrI,3.291
WCl2,3.7303333333333337
WClI,3.3675
WF2,5.512
WH2,4.493
WI2,3.3943333333333334
WO2,5.564
WOS,4.887
WOSe,4.531
WOTe,4.331
WS2,4.790333333333333
WSSe,4.5495
WSTe,4.398
WSb2,4.4655000000000005
WSe2,4.315666666666666
WSeTe,4.1795
WTe2,4.059
Y2Br2,3.83
Y2Br4,3.428
Y2Br6,5.4085
Y2C,3.827
Y2CF2,3.69
Y2CH2O2,1.423
Y2CO2,5.253
Y2Cl2,3.9985
Y2Cl2O2,5.754
Y2Cl2O4,7.979
Y2Cl4,3.566
Y2Cl6,5.827999999999999
Y2F2,3.652
Y2F2N,3.065
Y2H2NO2,2.036
Y2I2,3.901
Y2I4,3.305
Y2I6,4.9195
Y2N,3.961
Y2NO2,6.314
Y2Te6,4.757
Y3C2,3.52
Y3C2F2,4.468
Y3C2H2O2,1.843
Y3C2O2,2.725
Y3F2N2,3.259
Y3H2N2O2,1.79
Y3N2,4.134
Y3N2O2,5.675
Y4C3,3.07
Y4C3F2,4.287
Y4C3H2O2,1.737
Y4C3O2,5.209
Y4F2N3,2.816
Y4H2N3O2,2.028
Y4N3,4.183
Y4N3O2,6.215
YBr2,3.751666666666667
YCl2,3.9249999999999994
YF2,3.716
YI2,3.542666666666667
YS2,6.881
YSe2,6.654
YTe2,5.71
Zn2As4O8,4.251
Zn2Br2,5.4879999999999995
Zn2Cl2,5.7285
Zn2Cl4O6Sb4,6.255
Zn2F2,5.5815
Zn2Ge2O6,5.111
Zn2H4O8Se2,4.005
Zn2H8N4Te2,1.946
Zn2I2,4.741
Zn2O6Si2,4.332
Zn2P2S6,5.06
Zn2P2Se6,4.877
Zn2P2Te6,4.508
Zn2S2,5.022
Zn2S4,4.163
Zn2Se2,4.9750000000000005
Zn2Se4,4.323
Zn2Te2,4.829000000000001
Zn2Te4,4.185
Zn4Br4O4,6.939
Zn4Cl4O4,7.576
ZnB2C8N8,7.169
ZnBr2,5.308333333333334
ZnC4N6,4.311
ZnCl2,5.760000000000001
ZnF2,6.642
ZnH2O2,2.81
ZnI2,4.838
ZnS2,5.824
ZnSe2,5.106
ZnTe2,4.54
Zr2BO2,5.162
Zr2BS2,6.023
Zr2BSe2,5.762