Formula,Band gap
In2Se2,1.63
Na2H2O2,2.802
Pd2O6Se2,1.12
Zr2Cl2N2,1.923
In2Se2,1.321
Ag2Se2,0.75
Al2Se2,1.997
Au2I2,0.781
Co2Br2,0.065
In2Br2,2.054
Cu2Cl2,1.447
Ti2Cl2,0.013
Co2I2,0.037
Ga2Te2,1.297
Hf2Se2,0.043
Hg2Te2,0.026
I2Sb2,0.586
Ir2Se2,0.305
Pt2O2,0.432
Pb2S2,0.422
Sn2S2,1.414
BaCl2,5.618
CaCl2,4.771
CdCl2,3.616
CoBr2,0.174
GeO2,1.457
HfTe2,0.132
HgO2,0.504
MnBr2,1.775
NiI2,0.106
Os2Te4,0.713
PbTe2,0.125
PdS2,1.171
I2Sb,0.019
SnS2,1.587
SrCl2,5.267
ZrSe2,1.446
Al2Br6,3.897
Au2Cl6,0.208
W2Cl6,0.487
Cu2Br6,0.107
Ga2Cl6,2.524
In2Cl6,2.863
Mn2Cl6,0.039
Tl2Cl6,2.425
AsBrTe,1.237
AsIS,1.336
BiIS,0.401
ZrClI,0.877
ClSbSe,1.172
Hf2I2N2,1.585
ISbSe,1.012
ZrSSe,0.613
As4S6,2.272
Mo2Cl6,0.639
V4O10,2.062
Zr2I2N2,0.284
Al2Se2,2.138
Au2I2,0.829
In2Br2,1.338
Sn2Br2,0.035
Cu2Cl2,1.228
Tl2Cl2,2.659
Fe2I2,0.011
Ir2Se2,0.073
Pb2S2,0.17
Sn2S2,0.067
Tl2S2,0.628
BaCl2,4.747
CaCl2,5.53
CoCl2,0.168
CrTe2,0.453
HgBr2,1.982
MnCl2,1.713
Mo2S4,0.051
MoTe2,0.932
Os2Te4,0.117
PbO2,0.047
PtCl2,0.403
SnS2,0.763
ScO2,1.464
SnBr2,1.27
TiBr2,0.758
TiO2,2.701
VSe2,0.248
ZrSe2,0.337
Al2Br6,2.504
Co2Br6,0.027
W2Cl6,0.706
Cu2Cl6,0.426
Ga2I6,1.153
In2Cl6,3.761
Sc2Br6,2.975
Tl2Cl6,1.683
AsBrTe,1.064
AsIS,0.222
BiClS,1.43
BiIS,0.777
TiBrCl,0.83
BrSSb,1.426
CrClI,0.022
Zr2Cl2N2,1.849
ClSbSe,1.674
ISbTe,1.011
ZrSSe,0.829
VSeTe,0.12
As4S6,2.255
In2Te4,0.487
Hf2Br2N2,1.955
Bi2S2,0.309
Ag2Te2,0.477
Tl2Cl2,3.629
Pd2F2,0.865
Fe2I2,0.013
In2I2,1.787
Zn2I2,2.091
In2Se2,1.404
Pb2S2,1.162
BaCl2,5.192
CaCl2,5.784
CdI2,1.49
CoCl2,0.351
GeS2,1.344
HfO2,1.928
HgBr2,2.007
MnCl2,1.797
Mo2S4,0.133
PbO2,1.125
PdBr2,0.198
SnBr2,2.499
RuI2,1.022
SrI2,3.916
TiO2,1.195
ZnBr2,3.272
ZrSe2,0.739
Al2Cl6,3.842
Au2I6,0.012
Co2Br6,0.962
In2I6,1.597
Re2Br6,0.135
Sc2Br6,2.64
Tl2I6,0.772
W2I6,0.223
AsClS,1.731
AsISe,1.151
BiClS,1.002
HfBrI,0.713
BrSSb,1.217
ClSbTe,1.394
ISbTe,0.838
OsBr2,1.157
Pb2O2,2.406
Sn2O2,2.493
Hf2Cl2N2,2.33
Hf2Te2,0.04
Al2Te2,1.955
Au2O2,0.174
In2I2,0.988
Zr2Br2,0.045
Zr2S2,0.132
Sc2Te2,0.291
Ti2Se2,0.041
PbO2,1.346
CdI2,2.136
BaI2,3.332
FeBr2,0.263
GeS2,0.729
HfO2,4.477
HgBr2,1.573
MnCl2,2.025
Ru2Te4,0.642
VI2,1.202
ScS2,0.718
SnBr2,2.097
SnSe2,0.762
SrI2,3.418
TiO2,3.481
WS2,1.534
YBr2,0.344
ZnBr2,2.411
ZrTe2,0.788
Al2Cl6,5.487
Co2Cl6,0.01
In2I6,0.657
Sc2Cl6,3.233
Tl2I6,0.092
W2I6,0.705
AsClS,1.535
AsISe,0.446
BiISe,0.433
ClSbTe,1.255
ISSb,0.794
WSeTe,1.037
Au2Br2,1.985
Sn2O2,3.02
V4O10,2.033
Hf2I2N2,0.545
Ag2Br2,1.724
Cu2Br2,1.522
In2Te2,1.145
Ir2Se2,0.134
Cu2S2,0.624
Pb2Se2,0.478
Sb2Se2,0.438
Se2Si2,1.195
Tl2Se2,0.449
Zn2Se2,1.621
BaI2,3.873
CaI2,2.946
CdI2,2.335
FeBr2,0.733
Br2Ge,1.302
HfBr2,0.732
HfO2,4.777
HgCl2,2.447
Al2Te2,1.748
OsO2,0.265
PdSe2,0.229
PtSe2,1.167
Ru2Te4,0.157
ScBr2,0.157
SnCl2,2.745
SrI2,3.984
TiS2,1.266
ZnBr2,3.353
ZrI2,0.687
Al2I6,0.799
Bi2Br6,1.954
Co2Cl6,1.13
Ir2Br6,0.026
Mo2Cl6,0.507
Sc2Cl6,3.922
AsClSe,1.373
AsITe,0.329
BiClSe,1.235
BiISe,0.607
VBrCl,1.289
Hf2Br2N2,2.064
ISSb,1.219
TiSTe,0.093
Au2S2,1.216
Ga2Se2,0.697
Sn2O2,0.014
Pd2O6Se2,0.636
Ag2Br2,1.834
Bi2Se2,0.348
Cu2Br2,1.496
Cd2S2,1.786
Cu2Se2,0.447
Ga2O2,1.556
V2S2,0.214
Tl2Se2,0.494
CaI2,3.975
CrS2,0.877
Br2Ge,2.536
HfS2,1.061
HgCl2,2.084
MoS2,1.58
NiO2,1.281
OsBr2,0.095
Os2S4,0.111
PbBr2,2.004
PbS2,1.39
SnCl2,1.453
SnSe2,0.86
TiS2,0.734
ZnCl2,4.213
ZrTe2,0.259
Al2I6,2.093
Bi2Br6,1.743
Co2I6,0.526
Fe2Br6,0.043
Ir2Br6,1.567
Sc2I6,1.851
Ti2Br6,0.17
AsClSe,1.717
AsITe,0.982
BiClSe,0.851
BiITe,0.412
HfClI,0.814
ClSSb,1.669
Ag2Cl2,2.0
Re2Br2,0.1
Ta2I2,0.046
In2Te2,1.233
Rh2O2,0.067
BaI2,3.958
Pb2Se2,0.05
S2Sb2,0.362
Sb2Se2,0.237
Sn2Se2,0.084
Ti2Te2,0.217
CaI2,3.537
Br2Ge,2.301
HfS2,2.094
HgCl2,2.468
HgSe2,0.03
YCl2,0.374
MnI2,1.048
OsBr2,0.042
Os2S4,0.53
PbBr2,1.661
PbS2,0.672
PdCl2,0.463
PdSe2,0.558
SnCl2,2.324
TiCl2,0.903
TiS2,0.022
VTe2,0.212
ZnCl2,4.453
Fe2Br6,0.042
Ir2Cl6,1.823
Os2Cl6,0.063
Re2I6,0.141
Sc2I6,1.863
Y2Br6,3.496
AsClTe,1.479
BiBrS,1.188
BiClTe,0.599
BiITe,0.346
TiBrI,0.679
Hf2Cl2N2,2.101
ClSSb,1.316
MoSSe,1.453
ZrSeTe,0.262
Ag2Cl2,1.569
Bi2Se2,0.161
Ti2Br2,0.019
Cd2Se2,1.402
V2F2,0.031
In2O2,0.385
Ir2O2,0.122
Pb2Se2,0.789
Sn2Se2,0.923
Ti2Te2,0.11
Fe2Se4,0.575
CdS2,1.359
FeCl2,0.351
Cl2Ge,1.373
GeSe2,0.564
HfS2,1.221
PbCl2,2.775
MgBr2,4.588
MnI2,0.877
OsCl2,1.33
PbBr2,2.275
PbS2,0.755
PtTe2,0.303
ScCl2,0.107
ScSe2,0.56
Bi2Cl6,2.181
ZnCl2,3.434
ZrO2,1.69
AsClTe,1.289
Fe2Cl6,0.375
Ir2Cl6,0.267
Pd2I6,0.03
Re2I6,0.134
Ti2Cl6,0.121
V2Cl6,0.023
Y2Br6,4.087
BiBrS,0.891
BiClTe,0.531
ZrBrCl,0.912
HfSSe,0.684
MoSTe,0.204
Bi2Br2,0.867
PtO2,1.674
Ag2F2,0.555
Bi2Te2,0.332
Tl2Br2,2.413
Hg2Cl2,0.134
Cl2Sb2,0.436
Ge2S2,1.714
Zr2Se2,0.02
Zn2Te2,0.545
FeCl2,0.843
Cl2Ge,2.617
HfCl2,0.908
MgBr2,3.57
MnI2,1.224
HgI2,0.704
RuBr2,0.278
Ru2S4,0.725
SnI2,1.094
Fe2Cl6,0.013
VBr2,1.252
ZrO2,4.369
Ir2I6,0.024
Bi2Cl6,2.36
Rh2Br6,0.271
Y2Cl6,5.113
VBrI,1.188
TiClI,0.745
HfSSe,0.887
MoSTe,0.992
WSTe,1.141
Ag2F2,0.498
Al2O2,1.315
GaAs,1.119
Bi2Cl2,0.894
Tl2Br2,3.06
Cd2Te2,0.633
Pb2Te2,0.05
Ga2S2,2.18
Hg2I2,1.277
MgCl2,5.941
Zr2Se2,0.059
Cl2Ge,2.955
HgI2,1.54
Mo2Se4,0.041
NiBr2,0.876
OsCl2,0.237
PbCl2,2.367
PbSe2,1.027
RuBr2,1.045
HfSTe,0.038
SnI2,1.837
SnTe2,0.39
TiSe2,0.878
WSe2,1.238
ZnI2,1.749
ZrO2,4.448
Ir2I6,1.358
Rh2Br6,1.344
V2I6,0.014
Y2Cl6,4.42
BiCrAs,0.028
BiBrSe,1.02
HfBrCl,0.832
CrSSe,0.782
MoSeTe,1.136
WSTe,0.202
Ag2I2,1.768
SrCl2,5.738
Cd2Te2,0.845
In2Cl2,2.298
Pb2O2,0.192
Au2Se2,0.956
Pb2Cl2,0.42
Zr2Cl2,0.036
W2O2,0.053
Ga2S2,2.321
Ge2Se2,1.121
Pb2Te2,0.434
Tl2I2,2.063
V2Se2,0.257
Si2Te2,0.388
Tl2Te2,0.294
CdBr2,3.069
HfSe2,1.688
HgI2,1.199
MgCl2,4.762
MnO2,1.132
NiS2,0.583
Os2Se4,0.144
PbCl2,1.941
PbSe2,0.295
RuCl2,0.463
SnI2,1.926
SrBr2,4.313
ZnI2,0.898
ZrBr2,0.828
ZrS2,0.965
Ag2Br6,0.046
Rh2Cl6,0.22
Y2I6,2.756
BiBrSe,0.733
VClI,1.1
TiSSe,0.505
ZrSTe,0.208
MgCl2,5.293
Zn2Se2,2.042
VBr2O,0.77
Ag2I2,1.874
InAs,0.691
In2Cl2,1.552
Sn2Cl2,0.031
Cu2F2,0.032
Ga2Se2,1.765
Hf2S2,0.134
Tl2I2,2.399
In2S2,1.675
Pb2O2,0.242
Re2S2,0.237
Rh2Se2,0.101
Sc2S2,0.414
Sc2Se2,0.4
Tl2Te2,0.339
CdBr2,2.369
CrSe2,0.685
RuCl2,1.181
FeI2,0.065
GeI2,1.954
HfSe2,0.427
MgI2,3.273
NiCl2,1.219
Os2Se4,0.567
PbSe2,0.082
SnO2,2.101
SrBr2,4.929
TiI2,0.596
TiSe2,0.522
ZnI2,2.431
ZrS2,1.928
Bi2I6,1.102
Pt2Cl6,0.027
Rh2Cl6,1.59
Y2I6,2.574
AsBrS,1.387
BiBrTe,0.591
BrSbSe,1.069
HfSeTe,0.142
VSSe,0.013
As4O6,3.876
VCl2O,0.806
CdGaInS4,0.412
Al2S2,2.142
Au2Br2,0.486
Br2Sb2,0.444
In2S2,1.604
Sc2O2,0.7
Pb2Te2,0.271
Ti2S2,0.054
Sn2Te2,0.603
Zr2Te2,0.207
BaBr2,4.157
CaBr2,4.742
CdBr2,2.925
FeI2,0.144
Fe2Te4,0.282
GeI2,1.012
HfSe2,0.812
VCl2,1.354
MgI2,2.566
MoSe2,1.321
VS2,0.028
PbI2,1.293
PtBr2,0.152
ZrS2,1.159
SnO2,2.683
SrBr2,4.569
TiTe2,0.036
WO2,1.34
BrSbSe,1.464
Ag2Cl6,0.267
Bi2I6,1.377
Ga2Br6,1.35
Rh2I6,0.991
AsBrS,1.417
BiBrTe,0.529
ZrBrI,0.774
CrSTe,0.261
As4O6,4.256
In2Se3,0.435
Au2Te2,0.037
Bi2I2,0.776
Al2S2,2.085
Au2Br2,0.367
Pt2Cl2,1.308
Cu2I2,1.865
Ga2Se2,1.644
Ge2Te2,0.815
V2I2,0.025
Ir2S2,0.041
BaBr2,4.902
Pb2Te2,0.445
Pt2S2,0.031
S2Si2,1.417
Tl2S2,0.673
Zn2S2,2.557
Sn2Te2,0.028
V2Te2,0.226
Zr2Te2,0.452
CaBr2,4.863
CdCl2,3.868
CrO2,0.416
FeI2,0.687
GeO2,3.006
HfI2,0.63
MnBr2,1.477
MoO2,0.912
OsI2,1.1
PbI2,1.499
PdO2,1.379
Ru2Se4,0.779
ScI2,0.106
SnO2,0.665
TiTe2,0.374
YI2,0.142
Ga2Br6,2.594
In2Br6,2.745
Tl2Br6,1.661
AsBrSe,1.497
Zr2Br2N2,1.816
BrSbTe,1.052
Na2H2O2,3.504
WSSe,1.402
As4O6,3.791
V4O10,1.564
Zr2Br2N2,1.618
Ag2S2,0.962
Au2Te2,0.618
Bi2O2,0.12
Hg2Br2,0.193
Pb2Br2,0.438
Cu2I2,1.787
Ga2Te2,1.269
Hg2Te2,0.084
V2Te2,0.224
Zr2Te2,0.055
I2Sb2,0.039
Ir2S2,0.297
BaBr2,4.559
CaBr2,4.128
CdCl2,3.098
CoBr2,0.348
GeO2,3.641
HfTe2,0.988
MnBr2,1.588
SnS2,1.438
SrCl2,4.944
NiSe2,0.06
PbI2,1.577
PtS2,1.688
WTe2,0.727
Ru2Se4,0.103
TaO2,0.554
ZrCl2,0.981
Au2Br6,0.082
Ga2Cl6,3.83
In2Br6,2.011
Tl2Br6,1.092
AsBrSe,1.228
BrSbTe,1.319
CrSeTe,0.572
Zr2I2N2,1.104
ISbSe,1.007
TiSeTe,0.065