Formula,Work function (avg. if finite dipole)
Ag2,4.52
Ag2Au2Cl8,6.352
Ag2Br2,5.393
Ag2Br2N2,6.096
Ag2Br2O2,6.421
Ag2Br2S2,6.431
Ag2Br2S4,5.554
Ag2Br2Se2,6.345
Ag2Br2Se4,5.364
Ag2Br2Te4,4.979
Ag2Br4,6.557
Ag2Br6,6.6274999999999995
Ag2C8N6,3.931
Ag2Cl2,5.377
Ag2Cl2N2,6.558
Ag2Cl2O2,6.997
Ag2Cl2S2,6.926
Ag2Cl2S4,5.744
Ag2Cl2Se2,6.562
Ag2Cl2Se4,5.442
Ag2Cl2Te4,4.982
Ag2Cl6,7.341
Ag2Cr2P4S12,5.541
Ag2F2,5.237
Ag2F4,7.197
Ag2I2,4.526999999999999
Ag2I2N2,5.493
Ag2I2O2,5.581
Ag2I2S2,5.759
Ag2I2S4,5.191
Ag2I2Se2,5.242
Ag2I2Se4,5.167
Ag2I2Te4,4.89
Ag2I4,5.843
Ag2I6,5.82
Ag2MoO4,5.596
Ag2MoS4,5.083
Ag2MoSe4,4.75
Ag2MoTe4,4.37
Ag2O2,5.47
Ag2P2S6,5.913
Ag2P2Se6,5.417
Ag2P2Te6,4.834
Ag2ReBr6,5.762
Ag2ReCl6,5.942
Ag2ReF6,5.348
Ag2ReI6,5.395
Ag2S2,5.728
Ag2S4,4.838
Ag2Se2,5.449999999999999
Ag2Se4,4.728
Ag2Te2,5.251
Ag2Te4,4.595
Ag2V2P4S12,5.555
Ag2WO4,5.725
Ag2WS4,4.876
Ag2WSe4,4.576
Ag2WTe4,4.232
Ag8C4N8,4.924
AgBiP2Se6,5.057
AgBr2,6.6626666666666665
AgCa2Br2O2,5.306
AgCa2Br2S2,5.991
AgCa2Cl2O2,5.284
AgCa2Cl2S2,6.065
AgCa2I2O2,5.45
AgCa2I2S2,5.887
AgCl2,7.265666666666667
AgCuTe2,4.621
AgF2,6.481
AgGaP2Se6,4.974
AgH2,4.816
AgI2,5.916333333333334
AgInP2S6,5.219
AgInP2Se6,4.941
AgLi2,3.429
AgNi2O4,7.027
AgO2,6.74
AgS2,5.744
AgScP2S6,5.16
AgScP2Se6,4.864
AgSe2,5.2
AgSnF6,8.474
AgSr2Br2O2,5.385
AgSr2Br2S2,5.369
AgSr2Cl2O2,5.026
AgSr2Cl2S2,5.309
AgSr2I2O2,5.676
AgSr2I2S2,5.456
AgTe2,4.724
AgVP2Se6,4.98
Al2Br2N2,6.537
Al2Br2O2,4.501
Al2Br2S2,5.029
Al2Br2Se2,4.679
Al2Br4,4.175
Al2Br6,5.2509999999999994
Al2Cl2N2,6.573
Al2Cl2O2,5.031
Al2Cl2S2,4.815
Al2Cl2Se2,4.547
Al2Cl6,5.4559999999999995
Al2FeS4,3.608
Al2I2O2,3.726
Al2I2S2,5.145
Al2I2Se2,4.906
Al2I6,4.984999999999999
Al2Mg2Se5,4.266
Al2MgS4,4.345
Al2MgSe4,4.304
Al2MnS4,4.358
Al2O2,3.5445
Al2O4,8.445
Al2P2S6,4.627
Al2P2Se6,4.532
Al2P2Te6,4.344
Al2S2,4.466666666666666
Al2S4,6.349
Al2Se2,4.347666666666666
Al2Se4,5.556
Al2Si2Te6,4.549
Al2Te2,4.152666666666667
Al2Te4,5.117
Al2Tl2F8,6.043
Al2ZnS4,4.951
Al8Te12,4.028
AlAs,4.59
AlB4,4.953
AlBr2,4.145
AlC,4.996
AlCl2,4.519
AlFeF5,8.108
AlI2,4.323499999999999
AlLiP2S6,5.112
AlN,3.876
AlNi5Br2,4.32
AlNi5Cl2,4.689
AlNi5I2,3.871
AlP,4.222
AlPd5Br2,5.095
AlPd5Cl2,5.554
AlPd5I2,4.426
AlPt5Br2,4.499
AlPt5Cl2,5.313
AlPt5I2,3.872
AlSb,4.246
AlTe4,5.13
As2,4.5
As2Br6,5.609
As2C6,4.123
As2Ge6,4.604
As2H2O10Te2,6.178
As2I6,5.073
As2O6Sb2,4.038
As2O8P2,6.448
As2O8Sb2,5.085
As2Si6,4.501
As4,4.248
As4Ge4Se4,4.778
As4H2O12P2,4.73
As4O12S2,4.949
As4O6,4.247
As4O8,6.94
As4S6,4.750500000000001
As4Se6,4.614
As8Ge4,4.56
As8Si4,4.576
AsB,4.536
AsBr2,4.8420000000000005
AsBrS,5.5105
AsBrSe,5.3260000000000005
AsBrTe,5.1735
AsC,4.271
AsCl2,5.432499999999999
AsClS,5.789
AsClSe,5.6005
AsClTe,5.432
AsI2,4.2940000000000005
AsIS,5.025
AsISe,4.8705
AsITe,4.7235
AsS2,5.8870000000000005
AsSe2,5.4555
AsTe2,4.8455
Au2Br2,5.218
Au2Br2N2,5.659
Au2Br2O2,5.826
Au2Br2S2,5.714
Au2Br2Se2,5.646
Au2Br2Se4,5.288
Au2Br2Te4,4.992
Au2Br4,6.049
Au2Br6,6.2295
Au2CaF12,9.112
Au2Cl2,6.246
Au2Cl2N2,6.002
Au2Cl2O2,6.273
Au2Cl2Se2,6.006
Au2Cl2Te4,4.997
Au2Cl6,6.8055
Au2I2,4.5975
Au2I2N2,5.138
Au2I2O2,5.148
Au2I2S2,5.2
Au2I2Se2,5.131
Au2I2Se4,5.071
Au2I2Te4,4.79
Au2I4,5.429
Au2I6,5.5585
Au2MoO4,5.269
Au2MoS4,4.663
Au2MoSe4,4.335
Au2MoTe4,4.047
Au2O2,5.615
Au2O4,6.91
Au2P2S6,5.473
Au2P2Se6,5.032
Au2P2Te6,4.51
Au2ReF6,6.815
Au2S2,5.851
Au2S4,4.696
Au2Se2,5.467
Au2Se4,4.62
Au2SrO8,5.922
Au2Te2,4.69475
Au2Te4,4.414
Au2WO4,5.162
Au2WS4,4.525
Au2WSe4,4.249
Au2WTe4,3.977
Au4I4Te4,5.29
AuBr2,6.1626666666666665
AuCa2Br2O2,5.048
AuCa2Br2S2,5.941
AuCa2Cl2O2,5.241
AuCa2Cl2S2,6.066
AuCa2I2O2,5.111
AuCa2I2S2,5.772
AuCl2,6.6386666666666665
AuF2,7.911
AuH2,4.466
AuI2,5.519666666666667
AuLi2,2.743
AuO2,7.168333333333334
AuS2,5.669
AuSe2,5.077999999999999
AuSr2Br2O2,5.196
AuSr2Br2S2,5.32
AuSr2Cl2O2,4.907
AuSr2Cl2S2,5.314
AuSr2I2O2,5.43
AuSr2I2S2,5.314
AuTe2,4.572333333333333
B2,5.345
B2N,6.413
B3C10N3,4.265
BC,5.779
BN,3.487
BP,4.678
BSb,4.345
Ba2Br2,2.458
Ba2Cl2,2.562
Ba2CuHgTlO5,5.274
Ba2H8O6,3.518
Ba2I2,2.43
Ba2Mg2Pb2,3.591
Ba2Mg2Sn2,3.693
Ba2Mn2Ge2,2.398
Ba2N,3.003
Ba4F4Sb4Se8,4.876
BaBr2,4.934333333333334
BaCl2,5.052333333333333
BaF12Sb2,8.176
BaF2,4.683
BaI2,4.69
BaTa2O7,9.19
BaTe2,5.481
Be4,5.102
BeH4O4P2,3.748
Bi2,3.563
Bi2Br2,5.91
Bi2Br2N2,6.469
Bi2Br2O2,6.174
Bi2Br2S2,6.275
Bi2Br2Se2,6.262
Bi2Br6,6.264
Bi2C6,4.484
Bi2Cd2Cl2O4,5.516
Bi2Cl2,6.2455
Bi2Cl2N2,6.809
Bi2Cl2O2,6.619
Bi2Cl2S2,6.523
Bi2Cl2Se2,6.49
Bi2Cl6,6.6645
Bi2Cr,4.202
Bi2Cu2S4,3.701
Bi2F2,6.723
Bi2F6,5.593
Bi2Fe2Br2S4,3.968
Bi2Ge3O9,4.288
Bi2Ge6,4.68
Bi2Hf,4.1555
Bi2I2,5.3495
Bi2I2N2,6.142
Bi2I2O2,5.495
Bi2I2S2,5.765
Bi2I2Se2,5.839
Bi2I6,5.614
Bi2In2,3.888
Bi2MnTe4,4.68
Bi2Mo,4.121
Bi2Nb,4.175
Bi2O2,3.843
Bi2O9Si3,3.853
Bi2OS2,6.211
Bi2OSe2,5.676
Bi2OTe2,4.804
Bi2P2S6,5.297
Bi2P2Se6,4.862
Bi2P2Te6,4.487
Bi2Pb6,4.344
Bi2Pd,3.577
Bi2S2,5.13425
Bi2S2Se,6.202
Bi2S2Te,5.891
Bi2S3,6.21
Bi2S4,4.55
Bi2SSe2,5.827
Bi2STe2,5.251
Bi2Se2,4.84125
Bi2Se2Te,5.698
Bi2Se3,5.833
Bi2SeTe2,5.299
Bi2Si6,4.506
Bi2Sn6,4.55
Bi2Ta,3.915
Bi2Te2,4.63475
Bi2Te3,5.291
Bi2Te4,4.548
Bi2Ti,4.269
Bi2V,4.27
Bi2W,3.8705
Bi2YO4,3.134
Bi2Zr,4.2915
Bi4B4O12,4.412
Bi4Cu4,3.796
Bi4Sr2O8,3.424
Bi6Ir2O4,4.446
Bi6Pt3,3.832
Bi8Rh4,3.747
BiBr2,5.7443333333333335
BiBrS,6.177
BiBrSe,5.991
BiBrTe,5.615
BiCl2,6.359333333333333
BiClS,6.401999999999999
BiClSe,6.171
BiClTe,5.692
BiCrAs,4.526999999999999
BiCrSb,4.5375
BiCuP2Se6,5.114
BiF2,7.288
BiH2O2,3.046
BiHO6Se2,5.241
BiHfAs,5.009
BiHfSb,4.406000000000001
BiI2,5.016666666666667
BiIS,5.7285
BiISe,5.6285
BiITe,5.3919999999999995
BiMoAs,4.575
BiMoSb,4.421
BiNbAs,4.6195
BiNbSb,4.4535
BiO,4.756
BiO2,6.521
BiS2,6.241333333333333
BiSe2,5.846666666666667
BiTaAs,4.5745000000000005
BiTaSb,4.231999999999999
BiTe2,5.168
BiTiAs,4.875
BiTiSb,4.532
BiVAs,4.6205
BiVSb,4.561
BiWAs,4.4045
BiWSb,4.196
BiZrAs,4.9905
BiZrSb,4.5495
Br2Ge,5.428
Br2Ge2,5.703
Br2Ge2N2,5.683
Br2Ge2O2,5.337
Br2Ge2S2,5.865
Br2Ge2Se2,5.899
Br2Sb,5.419999999999999
Br2Sb2,5.341
Br6Sb2,5.609
BrSSb,5.5985
BrSbSe,5.4185
BrSbTe,5.209
C2,4.248
C2F2,6.1
C2H2,3.0
C6N2,2.963
C6N8,4.302
C6P2,3.592
C6Sb2,4.442
CF2Si,6.585
CH2Si,3.489
CN,1.848
CP,3.803
Ca2Br2,2.602
Ca2Br2H2,4.732
Ca2C,2.388
Ca2C2F2O6,8.366
Ca2Cl2,3.05
Ca2Cl4H8O4,5.023
Ca2Cl4O8,3.523
Ca2CoO3,1.741
Ca2CuBr2O2,5.649
Ca2CuBr2S2,5.459
Ca2CuCl2O2,5.357
Ca2CuCl2S2,5.43
Ca2CuI2O2,5.835
Ca2CuI2S2,5.486
Ca2F2,2.92
Ca2Fe2Si2,2.61
Ca2I2,3.621
Ca2Mn2Ge2,2.75
Ca2Mn2Si2,2.858
Ca2Mn2Sn2,2.608
Ca2N,3.589
Ca2Sn4F12,4.032
Ca3Cu2Br2O4,5.854
Ca4As4,2.781
Ca4O12Te4,3.792
CaBr2,5.177333333333333
CaCl2,5.436333333333334
CaF2,5.266
CaF2O2,6.139
CaH2O2,3.072
CaH2S2,3.26
CaH4O4,3.197
CaI2,4.692333333333333
CaS2,6.906
CaSe2,6.01
CaTe2,5.082
Cd2Br2,5.495
Cd2Cl2,5.6665
Cd2F2,5.333500000000001
Cd2H4O8Se2,4.392
Cd2I2,5.2715
Cd2Mn3O8,4.235
Cd2P2S6,5.262
Cd2P2Se6,4.976
Cd2P2Te6,4.53
Cd2S2,5.023
Cd2S4,4.115
Cd2Se2,5.0255
Cd2Se4,4.356
Cd2Te2,4.947
Cd2Te4,4.111
Cd4Br4O4,6.99
Cd4I4O4,6.259
CdBr2,5.673666666666667
CdC4Cl2H4N2,5.242
CdCl2,6.216333333333334
CdClHO,4.871
CdF2,6.715
CdF2O2,6.84
CdGaInS4,5.2165
CdH2O2,3.336
CdH2S2,3.659
CdI2,4.952
CdO2,7.686
CdPb2Cl2O2,4.578
CdS2,5.1735
CdSe2,5.14
CdTe2,4.439
Cl2Ge,5.713333333333334
Cl2Ge2,5.194
Cl2Ge2N2,5.684
Cl2Ge2O2,5.556
Cl2Ge2S2,6.202
Cl2Ge2Se2,6.193
Cl2Sb,6.108666666666667
Cl2Sb2,5.708
ClSSb,5.867
ClSbSe,5.6555
ClSbTe,5.3945
Co2Br2,3.91
Co2Br2N2,5.726
Co2Br2O2,5.277
Co2Br2S2,5.688
Co2Br2Se2,5.678
Co2Br4O6Sb4,4.858
Co2Br6,5.8205
Co2Cl2,4.5489999999999995
Co2Cl2N2,6.301
Co2Cl2O2,5.785
Co2Cl2S2,6.211
Co2Cl2Se2,6.14
Co2Cl6,6.3495
Co2F2,6.268000000000001
Co2F2O4,7.337
Co2H2O4,4.491
Co2H2S4,5.081
Co2H4O8Se2,4.144
Co2I2,3.7115
Co2I2N2,4.541
Co2I2O2,4.49
Co2I2S2,5.038
Co2I2Se2,5.071
Co2I6,5.0965
Co2Li2As2,2.945
Co2Li2P2,2.702
Co2Li2Sb2,3.203
Co2Na2As2,2.29
Co2Na2P2,2.239
Co2Na2Sb2,2.075
Co2O2,5.814333333333334
Co2P2S6,4.758
Co2P2Se6,4.487
Co2P2Te6,4.3
Co2Pd2P2,4.032
Co2S2,4.957199999999999
Co2S4,5.46
Co2S6,5.577
Co2Se2,4.5378
Co2Se4,5.217
Co2Se6,5.213
Co2Te2,4.3294
Co2Te4,4.832
Co2Te6,4.568
Co4Br4O4,4.99
Co4S8,5.771
Co8Ta4Te8,4.026
CoBr2,5.646666666666667
CoC2N2S2,4.786
CoC4Cl2H4N2,4.263
CoC4H8N2O4,4.265
CoCl2,5.963666666666666
CoCl2O8,6.839
CoF2,5.642
CoH2,4.849
CoH2O2,1.63
CoHfBr6,5.471
CoHfF6,6.207
CoI2,5.016333333333333
CoLi2,3.997
CoO2,7.268000000000001
CoRe2O8,6.545
CoS2,5.491
CoSe2,4.925
CoTe2,4.538666666666667
CoZrBr6,5.376
Cr2BO2,6.586
Cr2BS2,5.425
Cr2BSe2,4.803
Cr2Br2,3.849
Cr2Br2N2,5.862
Cr2Br2O2,5.181
Cr2Br2S2,5.703
Cr2Br2Se2,5.743
Cr2Br4C16H16N8,4.659
Cr2Br6,5.583
Cr2C,4.717
Cr2C16Cl4H16N8,4.433
Cr2C16H16I4N8,4.924
Cr2CO2,6.418
Cr2CS2,5.461
Cr2Cl2,3.997
Cr2Cl2N2,6.465
Cr2Cl2O2,5.547
Cr2Cl2S2,6.051
Cr2Cl2Se2,6.051
Cr2Cl6,5.902
Cr2Cu2O8,7.135
Cr2Cu2P4S12,5.326
Cr2F2,5.5665
Cr2F2N,5.301
Cr2F4,4.389
Cr2Ge2Te6,4.633
Cr2H2NO2,1.941
Cr2I2,3.642
Cr2I2N2,4.913
Cr2I2S2,5.24
Cr2I2Se2,5.282
Cr2I6,5.009
Cr2Mo2S8,5.353
Cr2Mo2Se8,4.814
Cr2Mo2Te8,4.477
Cr2N,4.967
Cr2Nb2Se10,4.653
Cr2O2,5.3955
Cr2P2S6,4.451
Cr2P2Se6,4.56
Cr2P2Te6,4.328
Cr2S2,4.495
Cr2S4,5.2715
Cr2Se2,4.441
Cr2Se4,4.96
Cr2Si2Te6,4.569
Cr2Ta4O12,5.131
Cr2Te4,4.751
Cr2Te6,4.829
Cr2W2S8,5.246
Cr2W2Se8,4.706
Cr2W2Te8,4.391
Cr3C2,4.552
Cr3C2F2,6.228
Cr3C2H2O2,1.561
Cr3C2O2,6.633
Cr3MoS8,5.398
Cr3MoSe8,4.868
Cr3MoTe8,4.526
Cr3N2,4.872
Cr3N2O2,6.817
Cr3Te4,4.864
Cr3WS8,5.348
Cr3WSe8,4.818
Cr3WTe8,4.482
Cr4C3,4.444
Cr4C3F2,6.127
Cr4C3H2O2,1.564
Cr4C3O2,6.571
Cr4F2N3,5.185
Cr4H2N3O2,1.96
Cr4N3,4.072
Cr4N3O2,6.347
CrAs2,5.109
CrAsSb,5.0015
CrBr2,4.990333333333333
CrBrCl,4.9755
CrBrI,4.684
CrCl2,5.174666666666667
CrClI,4.76
CrF2,6.21
CrGa2S4,3.944
CrGa2Se4,3.986
CrH2,4.979
CrH2O2,2.13
CrHO2,4.061
CrI2,4.715333333333334
CrLi2,3.809
CrMo3S8,5.277
CrMo3Se8,4.747
CrMo3Te8,4.432
CrMoF6,5.559
CrNbF6,4.547
CrO2,6.809333333333334
CrS2,5.319
CrSSe,5.024
CrSTe,4.8115000000000006
CrSb2,4.8635
CrSe2,4.876333333333334
CrSeTe,4.648
CrTe2,4.850333333333333
CrW3S8,5.049
CrW3Se8,4.533
CrW3Te8,4.266
Cs2Br2,3.502
Cs2C2F6O6S2,4.073
Cs2C6N6Se6,4.585
Cs2Cl2,3.51
Cs2F2,3.101
Cs2F2H6O6P2,4.641
CsC2I3N2,3.631
CsF2,6.989
CsO2,5.943
Cu2As4Cl2S3,4.505
Cu2Br2,4.484999999999999
Cu2Br2C4H4N2,4.083
Cu2Br2N2,6.072
Cu2Br2O2,6.338
Cu2Br2S2,6.307
Cu2Br2S4,5.424
Cu2Br2Se2,6.273
Cu2Br2Se4,5.138
Cu2Br2Te4,4.728
Cu2Br6,6.486000000000001
Cu2C2Cl2O2,4.506
Cu2C2N4,5.253
Cu2C4H4O8,5.224
Cu2C6H8I2N2,3.908
Cu2Cl2,4.8155
Cu2Cl2N2,6.562
Cu2Cl2O2,6.968
Cu2Cl2S2,6.773
Cu2Cl2Se2,6.671
Cu2Cl2Se4,5.159
Cu2Cl2Te4,4.716
Cu2Cl6,7.232
Cu2F2,7.24
Cu2F4,7.325
Cu2Ge2O6,6.032
Cu2H4O10Se2,6.914
Cu2Hg2Cl2Se2,4.884
Cu2I2,3.6414999999999997
Cu2I2N2,5.819
Cu2I2O2,5.549
Cu2I2S2,5.644
Cu2I2S4,5.264
Cu2I2Se2,5.638
Cu2I2Se4,5.038
Cu2I2Te4,4.697
Cu2I4,5.586
Cu2I4O12,5.391
Cu2I6,5.6805
Cu2MoO4,5.067
Cu2MoSe4,4.757
Cu2MoTe4,4.396
Cu2O12Sb4,6.494
Cu2O2,5.5415
Cu2O4S,4.45
Cu2O6Si2,5.81
Cu2P2S6,5.712
Cu2P2Se6,5.269
Cu2P2Te6,4.77
Cu2PtC6N8,6.15
Cu2ReBr6,5.301
Cu2ReCl6,5.428
Cu2ReF6,4.857
Cu2ReI6,5.15
Cu2S,4.173
Cu2S2,5.173333333333333
Cu2S4,4.914
Cu2S4Sb2,4.028
Cu2Sb2Se4,4.16
Cu2Se2,5.3574
Cu2Se4,4.838
Cu2Sr2,2.913
Cu2Te2,4.6296
Cu2Te4,4.71
Cu2WO4,4.53
Cu2WS4,4.9
Cu2WSe4,4.561
Cu2WTe4,4.234
Cu3O4P,5.514
Cu4Cl4H4O4,6.52
Cu4Cl4O4,7.323
Cu4F4H4O4,5.334
Cu4Li2V2O12,6.956
Cu4O12Te2,7.696
Cu4O12Te4,5.039
CuBr,4.099
CuBr2,6.2843333333333335
CuC6H4N6O2,5.648
CuCl2,6.872
CuF2,6.235
CuH2,4.709
CuH2O2,2.725
CuI2,5.586333333333333
CuInP2Se6,4.794
CuLi2,3.674
CuLi2O2,2.569
CuO2,7.425333333333334
CuS2,5.2843333333333335
CuSe2,4.816333333333334
CuSr2Br2O2,5.764
CuSr2Br2S2,4.877
CuSr2Cl2O2,5.364
CuSr2Cl2S2,4.638
CuSr2I2O2,6.065
CuSr2I2S2,5.251
CuTe2,4.558
CuV2O6,7.454
F2Ge,4.578
F2Ge2,7.127
F2Sb,7.482
F2Sb2,7.857
F2Si2,6.179
Fe2Br2,4.157
Fe2Br2N2,5.617
Fe2Br2O2,4.979
Fe2Br6,5.858499999999999
Fe2Cl2,4.7490000000000006
Fe2Cl2O2,5.498
Fe2Cl6,6.451
Fe2F2,6.2415
Fe2F2O2,6.892
Fe2Ga2S5,4.319
Fe2H2O4,5.517
Fe2I2,3.5295
Fe2I2O2,5.283
Fe2I2S2,5.127
Fe2I6,5.220000000000001
Fe2In2Se5,4.391
Fe2Li2As2,2.868
Fe2Li2P2,2.823
Fe2Li2Sb2,4.009
Fe2Mg2Ge2,3.479
Fe2Mg2Si2,3.177
Fe2Mo2Cl2O8,7.223
Fe2Na2P2,2.334
Fe2O2,5.432499999999999
Fe2O4,7.135
Fe2P2S6,5.315
Fe2P2Se6,4.956
Fe2P2Te6,4.652
Fe2S2,4.9445
Fe2S4,5.392
Fe2Se2,4.636666666666667
Fe2Se4,4.8919999999999995
Fe2Sr2Ge2,2.745
Fe2Sr2Si2,2.708
Fe2Sr3Br2O5,5.048
Fe2Sr4Br2O6,4.918
Fe2Ta2Te6,4.698
Fe2Te2,4.4154
Fe2Te4,4.628500000000001
Fe2Te6,4.665
Fe2W2Cl2O8,7.166
Fe3GeTe2,4.149
Fe3S4,5.3015
Fe3Se4,5.06
Fe4S8,5.0
FeBr2,4.892666666666667
FeCl2,5.135333333333333
FeF2,6.316
FeGa2S4,4.041
FeH2,4.868
FeH2O2,1.986
FeHfBr6,4.705
FeHfCl6,4.998
FeHfF6,5.139
FeHfI6,4.458
FeI2,4.678
FeLi2,3.586
FeMn2C6N6,4.485
FeO2,7.046666666666667
FeS2,5.349
FeSe2,4.8886666666666665
FeSn2C6N6,3.582
FeTe2,4.465333333333334
FeZn2C6N6,3.966
FeZrBr6,4.815
FeZrCl6,5.106
FeZrF6,5.279
FeZrI6,4.578
Ga2Br2,3.923
Ga2Br2N2,6.496
Ga2Br2O2,5.525
Ga2Br2S2,5.678
Ga2Br2Se2,5.529
Ga2Br6,5.8895
Ga2Cl2,3.765
Ga2Cl2N2,6.712
Ga2Cl2O2,6.157
Ga2Cl2S2,5.73
Ga2Cl2Se2,5.574
Ga2Cl2Te2,5.494
Ga2Cl6,6.256
Ga2F4H10N4,2.894
Ga2Ge2Te2,4.596
Ga2H2O8Se2,4.5
Ga2I2,4.068
Ga2I2N2,5.782
Ga2I2O2,4.665
Ga2I2S2,5.449
Ga2I2Se2,5.476
Ga2I6,5.4265
Ga2In2S6,5.813
Ga2Mn2S5,4.071
Ga2MnS4,4.741
Ga2NiS4,4.357
Ga2O2,4.7475000000000005
Ga2P2,3.386
Ga2P2Se6,4.643
Ga2P2Te6,4.472
Ga2S2,4.697
Ga2S4,5.455
Ga2Se2,4.6739999999999995
Ga2Se4,5.103
Ga2Te2,4.3549999999999995
Ga2Te3,4.287
Ga2Te4,4.611
Ga2Y2I2,4.098
GaAs,4.907
GaBr2,5.3823333333333325
GaC,5.066
GaCl2,5.553666666666667
GaF2,4.944
GaH2O2,1.783
GaI2,5.132333333333333
GaN,4.381
GaNi5Br2,4.317
GaNi5Cl2,4.669
GaNi5I2,3.891
GaO2,8.228
GaP,4.553
GaPd5Br2,5.061
GaPd5Cl2,5.529
GaPd5I2,4.399
GaPt5Br2,4.489
GaPt5Cl2,5.318
GaPt5I2,3.865
GaS2,6.502
GaSe2,5.753
GaTe2,4.974
Ge2,4.464
Ge2H2,4.414
Ge2I2,5.245
Ge2I2N2,5.134
Ge2I2O2,5.079
Ge2I2S2,5.473
Ge2I2Se2,5.617
Ge2P2S6,5.065
Ge2P2Se6,4.806
Ge2P2Te6,4.5
Ge2S2,4.2265
Ge2S4,4.407
Ge2Se2,4.1665
Ge2Se4,4.261
Ge2Te2,4.1295
Ge2Te4,4.473
Ge3O9Sb2,4.561
Ge6N2,4.309
Ge6P2,4.421
Ge6Sb2,4.529
GeH2O2,2.387
GeI2,4.9635
GeO,5.492
GeO2,7.292999999999999
GeS,4.941
GeS2,5.692333333333333
GeSe,4.652
GeSe2,5.2860000000000005
GeTe,4.217
GeTe2,4.692666666666667
H2O2Sb,2.625
H2Si2,4.095
H4O10Si4,5.094
H4O12Te4,5.825
Hf2Br2,3.803
Hf2Br2N2,5.1655
Hf2Br2O2,3.967
Hf2Br2S2,4.664
Hf2Br2Se2,4.569
Hf2Br4,3.845
Hf2Br6,3.955
Hf2C,4.459
Hf2CF2,3.63
Hf2CH2O2,2.329
Hf2CO2,4.879
Hf2Cl2,4.122
Hf2Cl2N2,5.337999999999999
Hf2Cl2O2,4.187
Hf2Cl2S2,4.817
Hf2Cl2Se2,4.648
Hf2Cl4,4.046
Hf2Cl6,4.127
Hf2F2,4.473
Hf2F2N,3.314
Hf2Ge2Te8,4.243
Hf2H2NO2,2.654
Hf2I2,3.5084999999999997
Hf2I2N2,4.601
Hf2I2O2,3.575
Hf2I2S2,4.447
Hf2I2Se2,4.374
Hf2I4,3.7
Hf2I6,3.8064999999999998
Hf2N,4.551
Hf2NO2,4.608
Hf2O2,3.673
Hf2O6,6.012
Hf2P2S6,5.142
Hf2P2Se6,4.872
Hf2P2Te6,4.48
Hf2S2,4.3504000000000005
Hf2S6,5.404
Hf2Se2,4.293200000000001
Hf2Se6,5.025
Hf2Si2Te2,4.616
Hf2Te10,4.459
Hf2Te2,4.2623999999999995
Hf2Te6,4.818
Hf2Ti2S8,6.3
Hf2Ti2Se8,5.843
Hf2Ti2Te8,5.168
Hf2Zr2S8,6.306
Hf2Zr2Se8,5.855
Hf2Zr2Te8,5.228
Hf3C2,4.328
Hf3C2F2,2.944
Hf3C2H2O2,2.271
Hf3C2O2,5.601
Hf3F2N2,3.582
Hf3H2N2O2,2.769
Hf3N2,4.464
Hf3N2O2,4.357
Hf3Te2,4.031
Hf3TiS8,6.307
Hf3TiSe8,5.857
Hf3TiTe8,5.172
Hf3ZrS8,6.306
Hf3ZrSe8,5.852
Hf3ZrTe8,5.196
Hf4Br4O4,4.001
Hf4Br4S4,4.481
Hf4Br4Se4,4.465
Hf4C3,4.471
Hf4C3F2,3.198
Hf4C3H2O2,2.341
Hf4C3O2,5.3
Hf4Cl4O4,4.321
Hf4Cl4S4,4.786
Hf4Cl4Se4,4.735
Hf4F2N3,3.197
Hf4H2N3O2,2.712
Hf4I4O4,3.654
Hf4I4S4,4.122
Hf4I4Se4,4.136
Hf4N3,4.472
Hf4N3O2,4.579
HfAs2,5.261
HfAsSb,5.168
HfBr2,3.698333333333333
HfBrCl,3.5
HfBrI,3.1985
HfCl2,4.062666666666666
HfClI,3.3445
HfF2,5.833
HfH2,4.236
HfH2O2,2.952
HfI2,3.346
HfLi2,2.477
HfMnF6,5.009
HfMnI6,4.887
HfNa2H6O6,3.44
HfNiBr6,5.845
HfNiCl6,6.298
HfNiI6,5.231
HfO2,6.000666666666667
HfPd2,4.22
HfS2,5.8950000000000005
HfSSe,5.6795
HfSTe,4.9135
HfSb2,4.6715
HfSe2,5.425999999999999
HfSeTe,4.9795
HfTe2,4.886
HfTi3S8,6.338
HfTi3Se8,5.847
HfTi3Te8,5.16
HfZr3S8,6.306
HfZr3Se8,5.865
HfZr3Te8,5.251
Hg2Br2,6.0489999999999995
Hg2Br2N2,6.511
Hg2Br2O2,6.647
Hg2Br2S2,5.794
Hg2Br2Se2,5.976
Hg2Cl2,6.3655
Hg2Cl2N2,7.039
Hg2Cl2O2,7.135
Hg2Cl2S2,6.282
Hg2Cl2Se2,5.987
Hg2F2,6.726
Hg2GeO4,5.52
Hg2I2,5.4094999999999995
Hg2I2N2,5.803
Hg2I2O2,5.861
Hg2I2S2,6.117
Hg2I2Se2,5.413
Hg2K4Cl8,5.648
Hg2O4,7.161
Hg2P2S6,5.497
Hg2P2Se6,5.134
Hg2P2Te6,4.601
Hg2Pt4Se6,4.829
Hg2Se2,5.646
Hg2Te2,5.1465
Hg2Te4,4.668
Hg2V2O6,6.083
Hg3B2O6,4.695
Hg4I8,5.333
Hg4K2Cl6O6S2,5.993
Hg4Mo2O8,5.73
Hg4W2O8,5.056
HgBr2,5.991666666666667
HgCl2,6.559333333333334
HgF2,7.029
HgH2O2,3.667
HgH2S2,5.011
HgI2,5.273333333333333
HgO,5.041
HgO2,7.048
HgS,5.44
HgS2,5.716333333333334
HgSe,5.427
HgSe2,5.198666666666667
HgTe,5.03
HgTe2,4.794
I2Sb,4.607333333333333
I2Sb2,4.8705
I6Sb2,5.133
ISSb,5.205
ISbSe,5.08
ISbTe,4.893000000000001
In2Br2,4.5760000000000005
In2Br2N2,6.594
In2Br2O2,6.008
In2Br2S2,5.672
In2Br2Se2,5.543
In2Br6,5.938000000000001
In2Cl2,4.6765
In2Cl2N2,6.881
In2Cl2O2,6.404
In2Cl2S2,5.833
In2Cl2Se2,5.692
In2Cl6,6.4
In2F2,5.545
In2I2,4.425
In2I2N2,5.889
In2I2O2,5.133
In2I2S2,5.4
In2I2Se2,5.436
In2I6,5.4155
In2MnSe4,4.744
In2O2,4.697
In2P2S6,5.048
In2P2Se6,4.707
In2P2Te6,4.425
In2S2,4.957
In2S4,5.357
In2Se2,4.7615
In2Se3,5.1775
In2Se4,5.025
In2Si2Te6,4.726
In2Te2,4.383
In2Te4,4.8925
In2Te5,4.423
In2Zn2S5,5.353
In2Zn3S6,5.434
In2ZnS4,5.382
In3Te4,4.949
In4Br4Te4,5.309
In4Br8,5.57
In4I4Te4,5.048
InAs,4.791
InBr2,5.412
InC,4.716
InCl2,5.530666666666666
InF2,5.142
InH2O2,1.795
InI2,5.077999999999999
InLiI4O12,5.632
InN,4.56
InNaI4O12,6.057
InNi5Br2,4.292
InNi5Cl2,4.641
InNi5I2,3.877
InP,4.633
InPd5Br2,5.089
InPd5Cl2,5.532
InPd5I2,4.489
InPt5Br2,4.507
InPt5Cl2,5.289
InPt5I2,3.849
InS2,6.736
InSb,4.34
InSe2,5.995
InSiTe3,4.396
InTe2,5.19
Ir2Br2,4.952
Ir2Br2N2,5.188
Ir2Br2O2,4.166
Ir2Br2S2,5.042
Ir2Br2Se2,5.192
Ir2Br4,4.27
Ir2Br6,4.758
Ir2Cl2,5.6080000000000005
Ir2Cl2N2,5.609
Ir2Cl2O2,4.573
Ir2Cl2S2,5.48
Ir2Cl2Se2,5.617
Ir2Cl6,5.201499999999999
Ir2F2,8.046
Ir2I2,3.6944999999999997
Ir2I2N2,4.515
Ir2I2O2,3.727
Ir2I2S2,4.497
Ir2I2Se2,4.673
Ir2I6,4.346
Ir2Nb2Te8,4.466
Ir2O2,5.885333333333333
Ir2O4,6.221
Ir2O6,7.122
Ir2P2S6,5.07
Ir2P2Se6,4.761
Ir2P2Te6,4.293
Ir2S2,4.6434
Ir2S4,5.4864999999999995
Ir2S6,5.528
Ir2Se2,4.176
Ir2Se4,5.2219999999999995
Ir2Se6,4.819
Ir2Ta2Te8,4.336
Ir2Te2,3.8888
Ir2Te4,4.843500000000001
Ir2Te6,4.481
Ir4S8,5.342
Ir4Se8,4.823
Ir4Te8,4.45
Ir5Te10,4.601
IrBr2,4.298333333333333
IrCl2,4.581333333333333
IrF2,7.332
IrH2,4.415
IrI2,4.054666666666667
IrLi2,3.8
IrO2,6.719333333333334
IrS2,5.233
IrSe2,4.666333333333333
IrTe2,4.292333333333333
K,2.398
K2Br2,3.936
K2C2H2O6,3.358
K2C2O6,6.729
K2C4,6.079
K2C4H6O6,3.123
K2C6H6O6,3.97
K2Cl2,3.904
K2Cl2O6,3.805
K2F2,3.571
K2I2,3.847
K2N2O6,4.49
K2Os2Br8N2O4,6.054
K2Os2F10N2O2,5.983
K2Pt2Cl6N2,6.611
KI2,5.68
KS2,6.682
KSe2,6.08
KTe2,5.315
KTiS2,4.302
Li2B2,4.24
Li2Cl2O4,3.632
Li2F2O2,5.542
Li2F2S2,4.365
Li2H2O2,3.167
Li2H2S2,3.369
Li2H4N2,2.944
Li2H4N2O6,4.695
Li2Mn,3.442
Li2Mn2P2,2.927
Li2Mo,3.755
Li2Nb,3.442
Li2Ni,3.785
Li2Ni2As2,3.023
Li2Ni2P2,2.777
Li2Ni2Sb2,3.499
Li2Os,4.084
Li2Pb,2.904
Li2PdH2,1.984
Li2Pt,3.638
Li2PtH6O6,3.079
Li2Re,4.136
Li2Rh,3.522
Li2Ru,3.872
Li2Sc,2.997
Li2Ta,3.416
Li2Ti,3.06
Li2Ti2Cl2N2,2.56
Li2V,3.781
Li2V4O10,5.627
Li2W,3.615
Li2Zr,2.57
Li4CO4,2.618
Li4O8Sb4,3.825
Li4Zn2Si2,3.949
Li6H2O8Te2,3.249
LiC12,3.268
LiC5H5N2O5,4.472
LiNiP2S6,5.715
Mg2Cl4,5.39
Mg2Mn2Ge2,3.496
Mg2Mn2Si2,3.495
Mg2Mo2O12Te2,6.421
Mg2P2S6,5.154
Mg2P2Se6,4.919
MgB2H8,4.876
MgBr2,5.054
MgCl2,5.444
MgF2O2,6.745
MgF2S2,6.268
MgH2O2,2.888
MgH2S2,3.202
MgI2,4.436
MgNa2H4O8S2,3.382
Mn2Br2,4.487
Mn2Br2O2,5.697
Mn2Br2S4Sb2,4.328
Mn2Br2Sb2Se4,4.397
Mn2Br2Se2,5.378
Mn2Br6,6.046
Mn2C,4.786
Mn2CF2,6.293
Mn2CH2O2,1.606
Mn2Cl2,4.885
Mn2Cl2N2,6.018
Mn2Cl2O2,6.065
Mn2Cl2S4Sb2,4.524
Mn2Cl2Se2,5.584
Mn2Cl6,6.023
Mn2F2,4.171
Mn2F2N,5.624
Mn2H2NO2,1.549
Mn2H2O4,3.591
Mn2H2S4,4.407
Mn2H4O8S2,3.157
Mn2I2,4.014
Mn2I2Sb2Se4,4.376
Mn2I2Se2,5.028
Mn2I6,5.474
Mn2Mo2O12Te2,5.599
Mn2N,5.204
Mn2NO2,6.523
Mn2O2,5.019
Mn2O8Se2,5.179
Mn2P2S6,5.221
Mn2P2Se6,4.895
Mn2S2,5.061
Mn2Se2,4.5575
Mn2Se4,4.996
Mn2Sn2Sr2,2.491
Mn2Sr2Ge2,2.747
Mn2Te2,4.203
Mn2Te6,4.674
Mn3C2,4.551
Mn3C2F2,6.244
Mn3C2H2O2,1.696
Mn3C2O2,6.714
Mn3F2N2,6.21
Mn3H2N2O2,1.734
Mn3N2,4.631
Mn4C3,4.411
Mn4C3F2,6.184
Mn4C3H2O2,1.679
Mn4C3O2,6.867
Mn4H2N3O2,1.917
Mn4N3,5.612
Mn4N3O2,6.603
Mn4Pb4O12,5.254
MnBr2,5.265666666666667