Formula,Work function (avg. if finite dipole)
Zr2Br2,3.5415
Zr2Br2N2,5.521
Zr2Br2O2,4.32
Zr2Br2S2,4.962
Zr2Br2Se2,4.856
Zr2Br4,4.04
Zr2Br6,4.276
Zr2CF2,3.906
Zr2CH2O2,2.031
Zr2CO2,4.817
Zr2CS2,6.239
Zr2CSe2,5.748
Zr2Cl2,3.6847499999999997
Zr2Cl2N2,5.7035
Zr2Cl2O2,4.616
Zr2Cl2S2,5.117
Zr2Cl2Se2,4.963
Zr2Cl4,4.237
Zr2Cl6,4.4415
Zr2F2,4.4285
Zr2F2N,3.54
Zr2Ge2Te8,4.293
Zr2H2NO2,2.342
Zr2I2,3.326
Zr2I2N2,4.8535
Zr2I2O2,3.9
Zr2I2S2,4.731
Zr2I2Se2,4.647
Zr2I4,3.898
Zr2I6,4.122999999999999
Zr2N,4.424
Zr2NO2,4.731
Zr2NS2,5.795
Zr2NSe2,5.47
Zr2O2,3.656
Zr2O6,5.872
Zr2P2S6,5.181
Zr2P2Se6,4.916
Zr2P2Te6,4.533
Zr2PTe2,4.971
Zr2S2,4.529999999999999
Zr2S6,5.432
Zr2Se2,4.4886
Zr2Se6,5.021
Zr2Si2Te2,4.694
Zr2Te10,4.489
Zr2Te2,4.3984000000000005
Zr2Te6,4.827
Zr3B2F2O2,7.101
Zr3B2F2S2,6.324
Zr3B2F2Se2,7.507
Zr3B2H2O2,1.447
Zr3B2H2S2,2.709
Zr3B2H2Se2,3.096
Zr3C2,3.921
Zr3C2F2,3.215
Zr3C2F2O2,4.898
Zr3C2F2S2,6.347
Zr3C2F2Se2,7.13
Zr3C2H2O2,2.117
Zr3C2H2S2,1.796
Zr3C2H2Se2,2.117
Zr3C2O2,5.433
Zr3F2N2,3.855
Zr3F2N2O2,8.245
Zr3H2N2O2,2.429
Zr3H2N2S2,2.77
Zr3H2N2Se2,3.085
Zr3N2,4.346
Zr3N2O2,4.427
Zr4Br4O4,4.273
Zr4Br4S4,4.64
Zr4Br4Se4,4.598
Zr4C3,3.917
Zr4C3F2,3.516
Zr4C3H2O2,2.074
Zr4C3O2,5.214
Zr4Cl4O4,4.586
Zr4Cl4S4,4.931
Zr4Cl4Se4,4.849
Zr4F2N3,3.576
Zr4H2N3O2,2.392
Zr4I4O4,3.922
Zr4I4S4,4.292
Zr4I4Se4,4.299
Zr4N3,4.346
Zr4N3O2,4.602
ZrAs2,5.2775
ZrAsSb,5.3004999999999995
ZrBr2,3.8776666666666664
ZrBrCl,3.726
ZrBrI,3.419
ZrCl2,4.267666666666667
ZrClI,3.5385
ZrF2,5.888
ZrH2,4.474
ZrH2O2,2.348
ZrH2O6P2,4.4
ZrI2,3.485666666666667
ZrO2,6.052333333333333
ZrS2,5.978333333333333
ZrSSe,5.7475000000000005
ZrSTe,5.008
ZrSb2,4.775
ZrSe2,5.5
ZrSeTe,5.101
ZrTe2,4.994